REMARK SMILES CN(CCOc1ccc(C[C@@H]2SC(=O)NC2=O)cc1)c1ccccn1
REMARK SMILES IDX 5 1 6 2 9 3 18 4 8 5 19 6 7 7 10 8 11 9 12 10 13 11 15 12
REMARK SMILES IDX 14 13 16 14 17 15 4 17 3 18 2 19 1 20 20 21 25 22 21 23
REMARK SMILES IDX 24 24 22 25 23 26
REMARK H PARENT 15 16
ROOT
ATOM      1  O   UNL     1      14.461 -20.048   8.789  1.00  0.00    -0.492 OA
ENDROOT
BRANCH   1   2
ATOM      2  C   UNL     1      15.613 -19.272   9.131  1.00  0.00     0.119 A 
ATOM      3  C   UNL     1      17.807 -17.600   9.945  1.00  0.00    -0.046 A 
ATOM      4  C   UNL     1      16.497 -17.425  10.509  1.00  0.00     0.007 A 
ATOM      5  C   UNL     1      18.024 -18.619   8.962  1.00  0.00     0.007 A 
ATOM      6  C   UNL     1      15.418 -18.250  10.103  1.00  0.00     0.047 A 
ATOM      7  C   UNL     1      16.951 -19.447   8.552  1.00  0.00     0.047 A 
BRANCH   3   8
ATOM      8  C   UNL     1      18.968 -16.689  10.404  1.00  0.00     0.060 C 
BRANCH   8   9
ATOM      9  C   UNL     1      19.848 -17.316  11.578  1.00  0.00     0.150 C 
ATOM     10  S   UNL     1      18.870 -17.428  13.078  1.00  0.00    -0.051 SA
ATOM     11  C   UNL     1      20.009 -16.407  13.932  1.00  0.00     0.286 C 
ATOM     12  N   UNL     1      21.048 -15.977  13.244  1.00  0.00    -0.286 N 
ATOM     13  O   UNL     1      19.854 -16.097  15.106  1.00  0.00    -0.261 OA
ATOM     14  C   UNL     1      21.043 -16.415  11.977  1.00  0.00     0.241 C 
ATOM     15  O   UNL     1      21.942 -16.119  11.196  1.00  0.00    -0.273 OA
ATOM     16  H   UNL     1      21.750 -15.398  13.619  1.00  0.00     0.173 HD
ENDBRANCH   8   9
ENDBRANCH   3   8
ENDBRANCH   1   2
BRANCH   1  17
ATOM     17  C   UNL     1      14.649 -21.446   8.396  1.00  0.00     0.251 C 
BRANCH  17  18
ATOM     18  C   UNL     1      13.310 -22.201   8.567  1.00  0.00     0.159 C 
BRANCH  18  19
ATOM     19  N   UNL     1      13.044 -22.668   9.992  1.00  0.00    -0.356 N 
ATOM     20  C   UNL     1      12.029 -21.915  10.822  1.00  0.00     0.145 C 
BRANCH  19  21
ATOM     21  C   UNL     1      13.791 -23.900  10.586  1.00  0.00     0.128 A 
ATOM     22  N   UNL     1      14.664 -24.657   9.787  1.00  0.00    -0.239 NA
ATOM     23  C   UNL     1      13.609 -24.307  11.978  1.00  0.00     0.047 A 
ATOM     24  C   UNL     1      15.322 -25.738  10.297  1.00  0.00     0.113 A 
ATOM     25  C   UNL     1      14.297 -25.423  12.485  1.00  0.00     0.005 A 
ATOM     26  C   UNL     1      15.160 -26.146  11.639  1.00  0.00     0.020 A 
ENDBRANCH  19  21
ENDBRANCH  18  19
ENDBRANCH  17  18
ENDBRANCH   1  17
TORSDOF 7
