REMARK SMILES C[C@]12CC[C@@H]3c4ccc(O)cc4CC[C@H]3[C@@H]1CC[C@@H]2O
REMARK SMILES IDX 7 1 8 2 9 3 11 4 12 5 13 6 14 7 15 8 5 9 6 10 4 11 3 12 2 13
REMARK SMILES IDX 16 14 17 15 18 16 19 17 1 18 10 19 20 21
REMARK H PARENT 10 20 20 22
ROOT
ATOM      1  C   UNL     1      -7.587  -4.290  15.607  1.00  0.00     0.008 A 
ATOM      2  C   UNL     1      -6.772  -4.081  16.724  1.00  0.00     0.046 A 
ATOM      3  C   UNL     1      -5.418  -4.217  16.643  1.00  0.00     0.115 A 
ATOM      4  C   UNL     1      -4.794  -4.580  15.431  1.00  0.00     0.050 A 
ATOM      5  C   UNL     1      -5.609  -4.784  14.313  1.00  0.00    -0.041 A 
ATOM      6  C   UNL     1      -4.861  -5.087  13.021  1.00  0.00     0.036 C 
ATOM      7  C   UNL     1      -5.766  -5.534  11.891  1.00  0.00     0.009 C 
ATOM      8  C   UNL     1      -7.027  -4.669  11.865  1.00  0.00     0.000 C 
ATOM      9  C   UNL     1      -7.839  -4.885  13.140  1.00  0.00     0.023 C 
ATOM     10  C   UNL     1      -7.001  -4.654  14.354  1.00  0.00    -0.041 A 
ATOM     11  C   UNL     1      -9.142  -4.074  13.044  1.00  0.00     0.009 C 
ATOM     12  C   UNL     1      -9.960  -4.607  11.840  1.00  0.00     0.010 C 
ATOM     13  C   UNL     1      -9.152  -4.383  10.558  1.00  0.00    -0.003 C 
ATOM     14  C   UNL     1      -7.814  -5.154  10.688  1.00  0.00     0.001 C 
ATOM     15  C   UNL     1      -7.216  -4.903   9.300  1.00  0.00     0.007 C 
ATOM     16  C   UNL     1      -8.419  -5.295   8.382  1.00  0.00     0.032 C 
ATOM     17  C   UNL     1      -9.667  -5.084   9.293  1.00  0.00     0.120 C 
ATOM     18  C   UNL     1      -8.985  -2.933  10.167  1.00  0.00     0.014 C 
ENDROOT
BRANCH   3  19
ATOM     19  O   UNL     1      -4.577  -4.010  17.752  1.00  0.00    -0.508 OA
ATOM     20  H   UNL     1      -3.650  -4.112  17.662  1.00  0.00     0.293 HD
ENDBRANCH   3  19
BRANCH  17  21
ATOM     21  O   UNL     1     -10.749  -4.436   8.639  1.00  0.00    -0.393 OA
ATOM     22  H   UNL     1     -10.467  -3.557   8.342  1.00  0.00     0.210 HD
ENDBRANCH  17  21
TORSDOF 2
