REMARK SMILES [NH3+][C@@H](Cc1cc(I)c(Oc2ccc(O)c(I)c2)c(I)c1)C(=O)[O-]
REMARK SMILES IDX 4 1 5 2 6 3 8 4 18 5 20 6 7 7 19 8 3 9 2 10 1 11 21 15 22 16
REMARK SMILES IDX 23 17 9 18 10 19 17 20 11 21 15 22 12 23 13 24 16 25 14 26
REMARK H PARENT 1 12 1 13 1 14 14 27
ROOT
ATOM      1  C   UNL     1      25.829   2.358  16.369  1.00  0.00    -0.039 A 
ATOM      2  C   UNL     1      26.186   1.040  16.560  1.00  0.00     0.022 A 
ATOM      3  C   UNL     1      26.523   0.591  17.843  1.00  0.00     0.057 A 
ATOM      4  C   UNL     1      26.542   1.491  18.947  1.00  0.00     0.154 A 
ATOM      5  C   UNL     1      26.161   2.850  18.692  1.00  0.00     0.057 A 
ATOM      6  C   UNL     1      25.876   3.307  17.415  1.00  0.00     0.022 A 
ATOM      7  I   UNL     1      27.056  -1.444  18.127  1.00  0.00    -0.040 I 
ATOM      8  I   UNL     1      25.996   4.248  20.358  1.00  0.00    -0.040 I 
ENDROOT
BRANCH   1   9
ATOM      9  C   UNL     1      25.500   2.762  14.907  1.00  0.00     0.107 C 
BRANCH   9  10
ATOM     10  C   UNL     1      24.353   3.779  14.794  1.00  0.00     0.232 C 
BRANCH  10  11
ATOM     11  N   UNL     1      23.191   3.407  15.624  1.00  0.00    -0.350 N 
ATOM     12  H   UNL     1      22.839   2.496  15.328  1.00  0.00     0.345 HD
ATOM     13  H   UNL     1      22.457   4.107  15.515  1.00  0.00     0.345 HD
ATOM     14  H   UNL     1      23.473   3.361  16.603  1.00  0.00     0.345 HD
ENDBRANCH  10  11
BRANCH  10  15
ATOM     15  C   UNL     1      23.998   3.859  13.309  1.00  0.00     0.099 C 
ATOM     16  O   UNL     1      24.875   4.040  12.484  1.00  0.00    -0.544 OA
ATOM     17  O   UNL     1      22.724   3.962  13.056  1.00  0.00    -0.544 OA
ENDBRANCH  10  15
ENDBRANCH   9  10
ENDBRANCH   1   9
BRANCH   4  18
ATOM     18  O   UNL     1      26.883   1.071  20.203  1.00  0.00    -0.455 OA
BRANCH  18  19
ATOM     19  C   UNL     1      28.179   1.002  20.674  1.00  0.00     0.128 A 
ATOM     20  C   UNL     1      28.430  -0.011  21.554  1.00  0.00     0.065 A 
ATOM     21  C   UNL     1      29.118   1.967  20.228  1.00  0.00     0.051 A 
ATOM     22  C   UNL     1      29.746  -0.084  22.119  1.00  0.00     0.058 A 
ATOM     23  C   UNL     1      30.438   1.894  20.752  1.00  0.00     0.051 A 
ATOM     24  C   UNL     1      30.782   0.876  21.686  1.00  0.00     0.129 A 
ATOM     25  I   UNL     1      30.228  -1.559  23.480  1.00  0.00    -0.040 I 
BRANCH  24  26
ATOM     26  O   UNL     1      31.997   0.771  22.329  1.00  0.00    -0.507 OA
ATOM     27  H   UNL     1      32.698   1.350  22.103  1.00  0.00     0.293 HD
ENDBRANCH  24  26
ENDBRANCH  18  19
ENDBRANCH   4  18
TORSDOF 7
