REMARK SMILES CC(O)C[C@H](c1ccccc1)c1c(O)c2ccccc2oc1=O
REMARK SMILES IDX 5 1 12 2 15 3 20 4 16 5 13 6 19 7 21 8 17 9 18 10 22 11
REMARK SMILES IDX 23 12 14 13 4 15 2 16 1 17 3 18 6 20 7 21 11 22 8 23 10 24
REMARK SMILES IDX 9 25
REMARK H PARENT 14 14 3 19
ROOT
ATOM      1  C   UNL     1       4.683  -9.969   6.536  1.00  0.00     0.063 C 
ENDROOT
BRANCH   1   2
ATOM      2  C   UNL     1       4.513 -10.642   7.913  1.00  0.00     0.088 A 
ATOM      3  C   UNL     1       3.322 -11.195  10.056  1.00  0.00     0.060 A 
ATOM      4  C   UNL     1       4.450 -11.973  10.438  1.00  0.00     0.142 A 
ATOM      5  C   UNL     1       2.231 -11.117  10.973  1.00  0.00     0.016 A 
ATOM      6  C   UNL     1       3.395 -10.510   8.748  1.00  0.00     0.137 A 
ATOM      7  C   UNL     1       4.503 -12.667  11.662  1.00  0.00     0.048 A 
ATOM      8  O   UNL     1       5.556 -12.104   9.602  1.00  0.00    -0.422 OA
ATOM      9  C   UNL     1       2.292 -11.809  12.191  1.00  0.00     0.001 A 
ATOM     10  C   UNL     1       3.426 -12.571  12.526  1.00  0.00     0.004 A 
ATOM     11  C   UNL     1       5.637 -11.471   8.370  1.00  0.00     0.343 A 
ATOM     12  O   UNL     1       6.673 -11.677   7.767  1.00  0.00    -0.246 OA
BRANCH   6  13
ATOM     13  O   UNL     1       2.286  -9.785   8.468  1.00  0.00    -0.507 OA
ATOM     14  H   UNL     1       2.228  -9.310   7.662  1.00  0.00     0.293 HD
ENDBRANCH   6  13
ENDBRANCH   1   2
BRANCH   1  15
ATOM     15  C   UNL     1       4.354  -8.460   6.660  1.00  0.00     0.045 C 
BRANCH  15  16
ATOM     16  C   UNL     1       5.039  -7.613   5.618  1.00  0.00     0.112 C 
ATOM     17  C   UNL     1       4.505  -6.252   5.227  1.00  0.00     0.038 C 
BRANCH  16  18
ATOM     18  O   UNL     1       6.188  -8.141   5.028  1.00  0.00    -0.393 OA
ATOM     19  H   UNL     1       6.356  -9.027   5.384  1.00  0.00     0.210 HD
ENDBRANCH  16  18
ENDBRANCH  15  16
ENDBRANCH   1  15
BRANCH   1  20
ATOM     20  C   UNL     1       3.867 -10.625   5.428  1.00  0.00    -0.040 A 
ATOM     21  C   UNL     1       4.489 -11.493   4.505  1.00  0.00     0.004 A 
ATOM     22  C   UNL     1       2.481 -10.400   5.278  1.00  0.00     0.004 A 
ATOM     23  C   UNL     1       3.744 -12.108   3.473  1.00  0.00     0.000 A 
ATOM     24  C   UNL     1       1.754 -11.022   4.244  1.00  0.00     0.000 A 
ATOM     25  C   UNL     1       2.378 -11.865   3.353  1.00  0.00     0.000 A 
ENDBRANCH   1  20
TORSDOF 6
