REMARK SMILES CCCCCCCCCCCCCCCC(=O)[O-]
REMARK SMILES IDX 9 1 10 2 11 3 12 4 13 5 14 6 15 7 16 8 17 9 18 10 8 11 7 12
REMARK SMILES IDX 6 13 5 14 4 15 3 16 2 17 1 18
REMARK H PARENT
ROOT
ATOM      1  C   UNL     1      -1.087  -8.440  23.670  1.00  0.00     0.000 C 
ENDROOT
BRANCH   1   2
ATOM      2  C   UNL     1      -2.593  -8.261  23.823  1.00  0.00     0.000 C 
BRANCH   2   3
ATOM      3  C   UNL     1      -3.136  -7.248  22.822  1.00  0.00     0.000 C 
BRANCH   3   4
ATOM      4  C   UNL     1      -4.321  -7.821  22.054  1.00  0.00     0.000 C 
BRANCH   4   5
ATOM      5  C   UNL     1      -4.048  -7.821  20.555  1.00  0.00     0.000 C 
BRANCH   5   6
ATOM      6  C   UNL     1      -5.109  -8.615  19.803  1.00  0.00     0.006 C 
BRANCH   6   7
ATOM      7  C   UNL     1      -5.439  -7.946  18.473  1.00  0.00     0.053 C 
BRANCH   7   8
ATOM      8  C   UNL     1      -6.618  -8.636  17.828  1.00  0.00     0.041 C 
ATOM      9  O   UNL     1      -6.441  -9.482  16.924  1.00  0.00    -0.550 OA
ATOM     10  O   UNL     1      -7.786  -8.369  18.186  1.00  0.00    -0.550 OA
ENDBRANCH   7   8
ENDBRANCH   6   7
ENDBRANCH   5   6
ENDBRANCH   4   5
ENDBRANCH   3   4
ENDBRANCH   2   3
ENDBRANCH   1   2
BRANCH   1  11
ATOM     11  C   UNL     1      -0.334  -7.698  24.769  1.00  0.00     0.000 C 
BRANCH  11  12
ATOM     12  C   UNL     1       0.838  -8.519  25.292  1.00  0.00    -0.000 C 
BRANCH  12  13
ATOM     13  C   UNL     1       1.450  -7.863  26.524  1.00  0.00    -0.000 C 
BRANCH  13  14
ATOM     14  C   UNL     1       2.916  -7.521  26.292  1.00  0.00    -0.000 C 
BRANCH  14  15
ATOM     15  C   UNL     1       3.329  -6.298  27.104  1.00  0.00    -0.000 C 
BRANCH  15  16
ATOM     16  C   UNL     1       4.275  -6.669  28.242  1.00  0.00    -0.000 C 
BRANCH  16  17
ATOM     17  C   UNL     1       5.726  -6.372  27.881  1.00  0.00    -0.003 C 
ATOM     18  C   UNL     1       6.504  -7.662  27.650  1.00  0.00     0.004 C 
ENDBRANCH  16  17
ENDBRANCH  15  16
ENDBRANCH  14  15
ENDBRANCH  13  14
ENDBRANCH  12  13
ENDBRANCH  11  12
ENDBRANCH   1  11
TORSDOF 14
