REMARK SMILES C/C(CC(=O)c1ccccc1)=N\[C@@H](Cc1ccc(OCCc2nc(-c3ccccc3)oc2C)cc1)C(=O)[O-]
REMARK SMILES IDX 15 1 16 2 35 3 17 4 34 5 18 6 14 7 13 8 12 9 2 10 1 11 3 12
REMARK SMILES IDX 4 13 5 14 6 15 11 16 7 17 10 18 8 19 9 20 36 21 37 22 38 23
REMARK SMILES IDX 19 24 20 25 21 26 22 27 23 28 32 29 24 30 31 31 33 32 25 33
REMARK SMILES IDX 26 34 30 35 27 36 29 37 28 38
REMARK H PARENT
ROOT
ATOM      1  C   UNL     1     -18.702 -11.120  -2.996  1.00  0.00    -0.045 A 
ATOM      2  C   UNL     1     -19.365 -11.318  -4.262  1.00  0.00     0.007 A 
ATOM      3  C   UNL     1     -17.286 -10.986  -2.947  1.00  0.00     0.007 A 
ATOM      4  C   UNL     1     -18.611 -11.382  -5.458  1.00  0.00     0.047 A 
ATOM      5  C   UNL     1     -16.537 -11.048  -4.123  1.00  0.00     0.047 A 
ATOM      6  C   UNL     1     -17.189 -11.250  -5.418  1.00  0.00     0.119 A 
ENDROOT
BRANCH   1   7
ATOM      7  C   UNL     1     -19.531 -11.057  -1.698  1.00  0.00     0.069 C 
BRANCH   7   8
ATOM      8  C   UNL     1     -19.620 -12.464  -0.974  1.00  0.00     0.155 C 
BRANCH   8   9
ATOM      9  N   UNL     1     -20.003 -13.612  -1.914  1.00  0.00    -0.284 NA
ATOM     10  C   UNL     1     -19.973 -14.984  -1.744  1.00  0.00     0.018 C 
ATOM     11  C   UNL     1     -19.526 -15.702  -0.452  1.00  0.00     0.062 C 
BRANCH  10  12
ATOM     12  C   UNL     1     -20.351 -15.750  -2.823  1.00  0.00     0.131 C 
BRANCH  12  13
ATOM     13  C   UNL     1     -20.854 -15.289  -4.248  1.00  0.00     0.168 C 
ATOM     14  O   UNL     1     -21.041 -14.079  -4.450  1.00  0.00    -0.294 OA
BRANCH  13  15
ATOM     15  C   UNL     1     -21.127 -16.213  -5.321  1.00  0.00     0.018 A 
ATOM     16  C   UNL     1     -21.060 -17.641  -5.155  1.00  0.00     0.012 A 
ATOM     17  C   UNL     1     -21.467 -15.688  -6.625  1.00  0.00     0.012 A 
ATOM     18  C   UNL     1     -21.324 -18.503  -6.254  1.00  0.00     0.001 A 
ATOM     19  C   UNL     1     -21.731 -16.559  -7.720  1.00  0.00     0.001 A 
ATOM     20  C   UNL     1     -21.657 -17.964  -7.531  1.00  0.00     0.000 A 
ENDBRANCH  13  15
ENDBRANCH  12  13
ENDBRANCH  10  12
ENDBRANCH   8   9
BRANCH   8  21
ATOM     21  C   UNL     1     -19.997 -12.466   0.484  1.00  0.00     0.066 C 
ATOM     22  O   UNL     1     -21.160 -12.746   0.807  1.00  0.00    -0.548 OA
ATOM     23  O   UNL     1     -19.107 -12.183   1.318  1.00  0.00    -0.548 OA
ENDBRANCH   8  21
ENDBRANCH   7   8
ENDBRANCH   1   7
BRANCH   6  24
ATOM     24  O   UNL     1     -16.531 -11.327  -6.657  1.00  0.00    -0.493 OA
BRANCH  24  25
ATOM     25  C   UNL     1     -15.078 -11.443  -6.704  1.00  0.00     0.236 C 
BRANCH  25  26
ATOM     26  C   UNL     1     -14.698 -11.819  -8.139  1.00  0.00     0.101 C 
BRANCH  26  27
ATOM     27  C   UNL     1     -14.800 -13.356  -8.390  1.00  0.00     0.086 A 
ATOM     28  N   UNL     1     -13.683 -14.177  -8.342  1.00  0.00    -0.214 NA
ATOM     29  C   UNL     1     -15.950 -14.145  -8.695  1.00  0.00     0.125 A 
ATOM     30  C   UNL     1     -14.167 -15.463  -8.626  1.00  0.00     0.226 A 
ATOM     31  O   UNL     1     -15.548 -15.425  -8.833  1.00  0.00    -0.441 OA
ATOM     32  C   UNL     1     -17.420 -13.692  -8.858  1.00  0.00     0.090 C 
BRANCH  30  33
ATOM     33  C   UNL     1     -13.375 -16.632  -8.698  1.00  0.00     0.037 A 
ATOM     34  C   UNL     1     -11.930 -16.607  -8.479  1.00  0.00     0.014 A 
ATOM     35  C   UNL     1     -13.986 -17.889  -9.001  1.00  0.00     0.014 A 
ATOM     36  C   UNL     1     -11.160 -17.798  -8.568  1.00  0.00     0.001 A 
ATOM     37  C   UNL     1     -13.190 -19.078  -9.085  1.00  0.00     0.001 A 
ATOM     38  C   UNL     1     -11.783 -19.026  -8.869  1.00  0.00     0.000 A 
ENDBRANCH  30  33
ENDBRANCH  26  27
ENDBRANCH  25  26
ENDBRANCH  24  25
ENDBRANCH   6  24
TORSDOF 12
