REMARK SMILES [NH3+][C@@H](Cc1cc(I)c(Oc2cc(I)c(O)c(I)c2)c(I)c1)C(=O)[O-]
REMARK SMILES IDX 4 1 5 2 6 3 8 4 19 5 21 6 7 7 20 8 3 9 2 10 22 11 23 12
REMARK SMILES IDX 24 13 1 14 9 18 10 19 18 20 11 21 16 22 12 23 14 24 17 25
REMARK SMILES IDX 13 26 15 27
REMARK H PARENT 1 15 1 16 1 17 15 28
ROOT
ATOM      1  C   UNL     1      29.150  68.940  42.037  1.00  0.00    -0.039 A 
ATOM      2  C   UNL     1      28.582  69.880  41.184  1.00  0.00     0.022 A 
ATOM      3  C   UNL     1      28.766  71.248  41.455  1.00  0.00     0.057 A 
ATOM      4  C   UNL     1      29.501  71.710  42.553  1.00  0.00     0.154 A 
ATOM      5  C   UNL     1      30.059  70.723  43.366  1.00  0.00     0.057 A 
ATOM      6  C   UNL     1      29.895  69.352  43.130  1.00  0.00     0.022 A 
ATOM      7  I   UNL     1      27.899  72.613  40.154  1.00  0.00    -0.040 I 
ATOM      8  I   UNL     1      31.178  71.282  45.012  1.00  0.00    -0.040 I 
ENDROOT
BRANCH   1   9
ATOM      9  C   UNL     1      28.906  67.456  41.811  1.00  0.00     0.107 C 
BRANCH   9  10
ATOM     10  C   UNL     1      27.641  66.942  42.520  1.00  0.00     0.232 C 
BRANCH  10  11
ATOM     11  C   UNL     1      27.665  67.127  44.088  1.00  0.00     0.099 C 
ATOM     12  O   UNL     1      26.630  67.539  44.629  1.00  0.00    -0.544 OA
ATOM     13  O   UNL     1      28.717  66.836  44.671  1.00  0.00    -0.544 OA
ENDBRANCH  10  11
BRANCH  10  14
ATOM     14  N   UNL     1      26.440  67.659  42.001  1.00  0.00    -0.350 N 
ATOM     15  H   UNL     1      26.516  68.652  42.220  1.00  0.00     0.345 HD
ATOM     16  H   UNL     1      25.601  67.278  42.438  1.00  0.00     0.345 HD
ATOM     17  H   UNL     1      26.382  67.537  40.990  1.00  0.00     0.345 HD
ENDBRANCH  10  14
ENDBRANCH   9  10
ENDBRANCH   1   9
BRANCH   4  18
ATOM     18  O   UNL     1      29.662  73.086  42.841  1.00  0.00    -0.455 OA
BRANCH  18  19
ATOM     19  C   UNL     1      30.619  73.945  42.293  1.00  0.00     0.129 A 
ATOM     20  C   UNL     1      30.511  75.307  42.562  1.00  0.00     0.065 A 
ATOM     21  C   UNL     1      31.643  73.461  41.510  1.00  0.00     0.065 A 
ATOM     22  C   UNL     1      31.461  76.187  42.024  1.00  0.00     0.060 A 
ATOM     23  C   UNL     1      32.566  74.379  40.995  1.00  0.00     0.060 A 
ATOM     24  C   UNL     1      32.503  75.749  41.234  1.00  0.00     0.142 A 
ATOM     25  I   UNL     1      31.305  78.233  42.423  1.00  0.00    -0.040 I 
ATOM     26  I   UNL     1      34.099  73.655  39.819  1.00  0.00    -0.040 I 
BRANCH  24  27
ATOM     27  O   UNL     1      33.397  76.594  40.731  1.00  0.00    -0.506 OA
ATOM     28  H   UNL     1      34.096  76.273  40.197  1.00  0.00     0.293 HD
ENDBRANCH  24  27
ENDBRANCH  18  19
ENDBRANCH   4  18
TORSDOF 7
