REMARK SMILES CCOP(=O)(OCC)C(c1cc(C(C)(C)C)c(O)c(C(C)(C)C)c1)P(=O)(OCC)OCC
REMARK SMILES IDX 9 1 4 2 5 3 3 4 2 5 1 6 6 7 7 8 8 9 10 10 11 11 24 12 12 13
REMARK SMILES IDX 19 14 17 15 13 16 14 17 15 18 16 19 20 20 21 21 22 22 23 23
REMARK SMILES IDX 18 24 25 26 26 27 27 28 28 29 29 30 30 31 31 32 32 33
REMARK H PARENT 18 25
ROOT
ATOM      1  C   UNL     1      -1.369  -0.204   0.129  1.00  0.00     0.249 C 
ENDROOT
BRANCH   1   2
ATOM      2  P   UNL     1      -2.090   1.016  -1.011  1.00  0.00     0.350 P 
ATOM      3  O   UNL     1      -1.778   0.807  -2.464  1.00  0.00    -0.259 OA
BRANCH   2   4
ATOM      4  O   UNL     1      -1.598   2.467  -0.488  1.00  0.00    -0.308 OA
BRANCH   4   5
ATOM      5  C   UNL     1      -2.005   2.954   0.777  1.00  0.00     0.167 C 
ATOM      6  C   UNL     1      -0.894   3.806   1.359  1.00  0.00     0.035 C 
ENDBRANCH   4   5
ENDBRANCH   2   4
BRANCH   2   7
ATOM      7  O   UNL     1      -3.672   1.054  -0.683  1.00  0.00    -0.308 OA
BRANCH   7   8
ATOM      8  C   UNL     1      -4.504   1.721  -1.619  1.00  0.00     0.167 C 
ATOM      9  C   UNL     1      -5.949   1.545  -1.196  1.00  0.00     0.035 C 
ENDBRANCH   7   8
ENDBRANCH   2   7
ENDBRANCH   1   2
BRANCH   1  10
ATOM     10  C   UNL     1       0.125  -0.011   0.389  1.00  0.00    -0.020 A 
ATOM     11  C   UNL     1       0.624  -0.069   1.697  1.00  0.00     0.013 A 
ATOM     12  C   UNL     1       1.015   0.195  -0.673  1.00  0.00     0.013 A 
ATOM     13  C   UNL     1       1.988   0.113   1.982  1.00  0.00    -0.000 A 
ATOM     14  C   UNL     1       2.393   0.374  -0.469  1.00  0.00    -0.000 A 
ATOM     15  C   UNL     1       2.837   0.354   0.874  1.00  0.00     0.123 A 
BRANCH  13  16
ATOM     16  C   UNL     1       2.514   0.034   3.437  1.00  0.00    -0.010 C 
ATOM     17  C   UNL     1       1.417  -0.308   4.480  1.00  0.00     0.016 C 
ATOM     18  C   UNL     1       3.107   1.393   3.872  1.00  0.00     0.016 C 
ATOM     19  C   UNL     1       3.584  -1.073   3.569  1.00  0.00     0.016 C 
ENDBRANCH  13  16
BRANCH  14  20
ATOM     20  C   UNL     1       3.353   0.555  -1.671  1.00  0.00    -0.010 C 
ATOM     21  C   UNL     1       2.649   0.461  -3.051  1.00  0.00     0.016 C 
ATOM     22  C   UNL     1       4.028   1.943  -1.633  1.00  0.00     0.016 C 
ATOM     23  C   UNL     1       4.429  -0.554  -1.671  1.00  0.00     0.016 C 
ENDBRANCH  14  20
BRANCH  15  24
ATOM     24  O   UNL     1       4.163   0.588   1.119  1.00  0.00    -0.507 OA
ATOM     25  H   UNL     1       4.245   1.556   1.162  1.00  0.00     0.293 HD
ENDBRANCH  15  24
ENDBRANCH   1  10
BRANCH   1  26
ATOM     26  P   UNL     1      -1.837  -1.928  -0.187  1.00  0.00     0.350 P 
ATOM     27  O   UNL     1      -1.396  -2.912   0.858  1.00  0.00    -0.259 OA
BRANCH  26  28
ATOM     28  O   UNL     1      -1.343  -2.288  -1.677  1.00  0.00    -0.308 OA
BRANCH  28  29
ATOM     29  C   UNL     1      -0.150  -3.044  -1.812  1.00  0.00     0.167 C 
ATOM     30  C   UNL     1       0.213  -3.111  -3.282  1.00  0.00     0.035 C 
ENDBRANCH  28  29
ENDBRANCH  26  28
BRANCH  26  31
ATOM     31  O   UNL     1      -3.441  -1.879  -0.354  1.00  0.00    -0.308 OA
BRANCH  31  32
ATOM     32  C   UNL     1      -4.107  -3.109  -0.591  1.00  0.00     0.167 C 
ATOM     33  C   UNL     1      -5.530  -2.808  -1.015  1.00  0.00     0.035 C 
ENDBRANCH  31  32
ENDBRANCH  26  31
ENDBRANCH   1  26
TORSDOF 14
