REMARK SMILES O=S(=O)([O-])CCC(F)(F)C(F)(F)C(F)(F)C(F)(F)F
REMARK SMILES IDX 7 1 8 2 9 3 6 4 5 5 2 6 1 7 3 8 4 9 10 10 11 11 12 12 13 13
REMARK SMILES IDX 14 14 15 15 16 16 17 17 18 18 19 19
REMARK H PARENT
ROOT
ATOM      1  C   UNL     1      -0.041  -0.456  -0.294  1.00  0.00     0.317 C 
ATOM      2  F   UNL     1      -0.171  -0.672  -1.632  1.00  0.00    -0.200 F 
ATOM      3  F   UNL     1       0.059  -1.686   0.278  1.00  0.00    -0.200 F 
ENDROOT
BRANCH   1   4
ATOM      4  C   UNL     1       1.237   0.316  -0.038  1.00  0.00     0.099 C 
BRANCH   4   5
ATOM      5  C   UNL     1       2.444  -0.437  -0.583  1.00  0.00     0.129 C 
BRANCH   5   6
ATOM      6  S   UNL     1       3.953   0.452  -0.293  1.00  0.00     0.095 S 
ATOM      7  O   UNL     1       3.997   0.561   1.163  1.00  0.00    -0.243 OA
ATOM      8  O   UNL     1       4.966  -0.422  -0.879  1.00  0.00    -0.243 OA
ATOM      9  O   UNL     1       3.736   1.710  -1.002  1.00  0.00    -0.748 OA
ENDBRANCH   5   6
ENDBRANCH   4   5
ENDBRANCH   1   4
BRANCH   1  10
ATOM     10  C   UNL     1      -1.273   0.267   0.238  1.00  0.00     0.381 C 
ATOM     11  F   UNL     1      -1.139   0.489   1.576  1.00  0.00    -0.192 F 
ATOM     12  F   UNL     1      -1.368   1.502  -0.332  1.00  0.00    -0.192 F 
BRANCH  10  13
ATOM     13  C   UNL     1      -2.529  -0.526  -0.032  1.00  0.00     0.409 C 
ATOM     14  F   UNL     1      -2.695  -0.746  -1.369  1.00  0.00    -0.189 F 
ATOM     15  F   UNL     1      -2.465  -1.762   0.543  1.00  0.00    -0.189 F 
BRANCH  13  16
ATOM     16  C   UNL     1      -3.726   0.227   0.512  1.00  0.00     0.460 C 
ATOM     17  F   UNL     1      -4.878  -0.459   0.286  1.00  0.00    -0.165 F 
ATOM     18  F   UNL     1      -3.658   0.425   1.849  1.00  0.00    -0.165 F 
ATOM     19  F   UNL     1      -3.889   1.441  -0.064  1.00  0.00    -0.165 F 
ENDBRANCH  13  16
ENDBRANCH  10  13
ENDBRANCH   1  10
TORSDOF 6
