REMARK SMILES O=S(=O)([O-])CCC(F)(F)C(F)(F)C(F)(F)C(F)(F)C(F)(F)C(F)(F)F
REMARK SMILES IDX 10 1 11 2 12 3 7 4 8 5 9 6 6 7 5 8 2 9 1 10 3 11 4 12 13 13
REMARK SMILES IDX 14 14 15 15 16 16 17 17 18 18 19 19 20 20 21 21 22 22 23 23
REMARK SMILES IDX 24 24 25 25
REMARK H PARENT
ROOT
ATOM      1  C   UNL     1      -0.223   0.586   0.752  1.00  0.00     0.378 C 
ATOM      2  F   UNL     1      -0.448  -0.084   1.920  1.00  0.00    -0.193 F 
ATOM      3  F   UNL     1       0.082   1.870   1.131  1.00  0.00    -0.193 F 
ENDROOT
BRANCH   1   4
ATOM      4  C   UNL     1       0.975  -0.020   0.030  1.00  0.00     0.317 C 
ATOM      5  F   UNL     1       0.782  -1.354  -0.142  1.00  0.00    -0.200 F 
ATOM      6  F   UNL     1       1.079   0.517  -1.214  1.00  0.00    -0.200 F 
BRANCH   4   7
ATOM      7  C   UNL     1       2.275   0.185   0.781  1.00  0.00     0.099 C 
BRANCH   7   8
ATOM      8  C   UNL     1       3.437  -0.456   0.034  1.00  0.00     0.129 C 
BRANCH   8   9
ATOM      9  S   UNL     1       4.974  -0.222   0.889  1.00  0.00     0.095 S 
ATOM     10  O   UNL     1       5.106   1.232   0.938  1.00  0.00    -0.243 OA
ATOM     11  O   UNL     1       4.735  -0.866   2.178  1.00  0.00    -0.243 OA
ATOM     12  O   UNL     1       5.936  -0.902   0.026  1.00  0.00    -0.748 OA
ENDBRANCH   8   9
ENDBRANCH   7   8
ENDBRANCH   4   7
ENDBRANCH   1   4
BRANCH   1  13
ATOM     13  C   UNL     1      -1.511   0.649  -0.057  1.00  0.00     0.384 C 
ATOM     14  F   UNL     1      -1.371   1.485  -1.123  1.00  0.00    -0.192 F 
ATOM     15  F   UNL     1      -2.452   1.243   0.742  1.00  0.00    -0.192 F 
BRANCH  13  16
ATOM     16  C   UNL     1      -2.060  -0.680  -0.527  1.00  0.00     0.387 C 
ATOM     17  F   UNL     1      -2.245  -1.505   0.541  1.00  0.00    -0.192 F 
ATOM     18  F   UNL     1      -1.146  -1.306  -1.324  1.00  0.00    -0.192 F 
BRANCH  16  19
ATOM     19  C   UNL     1      -3.345  -0.587  -1.329  1.00  0.00     0.409 C 
ATOM     20  F   UNL     1      -3.126   0.071  -2.507  1.00  0.00    -0.189 F 
ATOM     21  F   UNL     1      -3.703  -1.862  -1.699  1.00  0.00    -0.189 F 
BRANCH  19  22
ATOM     22  C   UNL     1      -4.510   0.047  -0.595  1.00  0.00     0.460 C 
ATOM     23  F   UNL     1      -4.366   1.381  -0.435  1.00  0.00    -0.165 F 
ATOM     24  F   UNL     1      -5.668  -0.117  -1.288  1.00  0.00    -0.165 F 
ATOM     25  F   UNL     1      -4.706  -0.496   0.627  1.00  0.00    -0.165 F 
ENDBRANCH  19  22
ENDBRANCH  16  19
ENDBRANCH  13  16
ENDBRANCH   1  13
TORSDOF 8
