REMARK SMILES O=C([O-])CC(F)(F)C(F)(F)C(F)(F)C(F)(F)C(F)(F)C(F)(F)F
REMARK SMILES IDX 8 1 9 2 10 3 5 4 6 5 7 6 4 7 2 8 1 9 3 10 11 11 12 12 13 13
REMARK SMILES IDX 14 14 15 15 16 16 17 17 18 18 19 19 20 20 21 21 22 22 23 23
REMARK H PARENT
ROOT
ATOM      1  C   UNL     1       0.884   0.549  -1.088  1.00  0.00     0.378 C 
ATOM      2  F   UNL     1       1.344   1.626  -1.805  1.00  0.00    -0.193 F 
ATOM      3  F   UNL     1       1.105  -0.529  -1.902  1.00  0.00    -0.193 F 
ENDROOT
BRANCH   1   4
ATOM      4  C   UNL     1       1.683   0.404   0.202  1.00  0.00     0.321 C 
ATOM      5  F   UNL     1       1.321  -0.766   0.789  1.00  0.00    -0.199 F 
ATOM      6  F   UNL     1       1.310   1.402   1.042  1.00  0.00    -0.199 F 
BRANCH   4   7
ATOM      7  C   UNL     1       3.163   0.433  -0.088  1.00  0.00     0.136 C 
BRANCH   7   8
ATOM      8  C   UNL     1       3.838   0.232   1.241  1.00  0.00     0.048 C 
ATOM      9  O   UNL     1       4.078   1.289   1.885  1.00  0.00    -0.550 OA
ATOM     10  O   UNL     1       4.139  -0.962   1.510  1.00  0.00    -0.550 OA
ENDBRANCH   7   8
ENDBRANCH   4   7
ENDBRANCH   1   4
BRANCH   1  11
ATOM     11  C   UNL     1      -0.613   0.733  -0.890  1.00  0.00     0.384 C 
ATOM     12  F   UNL     1      -1.178   0.840  -2.139  1.00  0.00    -0.192 F 
ATOM     13  F   UNL     1      -0.876   1.930  -0.291  1.00  0.00    -0.192 F 
BRANCH  11  14
ATOM     14  C   UNL     1      -1.309  -0.381  -0.131  1.00  0.00     0.387 C 
ATOM     15  F   UNL     1      -0.929  -0.382   1.172  1.00  0.00    -0.192 F 
ATOM     16  F   UNL     1      -0.957  -1.591  -0.642  1.00  0.00    -0.192 F 
BRANCH  14  17
ATOM     17  C   UNL     1      -2.811  -0.220  -0.202  1.00  0.00     0.409 C 
ATOM     18  F   UNL     1      -3.246  -0.270  -1.496  1.00  0.00    -0.189 F 
ATOM     19  F   UNL     1      -3.196   1.001   0.270  1.00  0.00    -0.189 F 
BRANCH  17  20
ATOM     20  C   UNL     1      -3.485  -1.318   0.598  1.00  0.00     0.460 C 
ATOM     21  F   UNL     1      -3.163  -1.289   1.911  1.00  0.00    -0.165 F 
ATOM     22  F   UNL     1      -4.839  -1.201   0.534  1.00  0.00    -0.165 F 
ATOM     23  F   UNL     1      -3.188  -2.555   0.137  1.00  0.00    -0.165 F 
ENDBRANCH  17  20
ENDBRANCH  14  17
ENDBRANCH  11  14
ENDBRANCH   1  11
TORSDOF 7
