REMARK SMILES O=C([O-])CC(F)(F)C(F)(F)C(F)(F)C(F)(F)C(F)(F)C(F)(F)C(F)(F)C(F)(F)F
REMARK SMILES IDX 11 1 12 2 13 3 8 4 9 5 10 6 5 7 6 8 7 9 4 10 2 11 1 12 3 13
REMARK SMILES IDX 14 14 15 15 16 16 17 17 18 18 19 19 20 20 21 21 22 22 23 23
REMARK SMILES IDX 24 24 25 25 26 26 27 27 28 28 29 29
REMARK H PARENT
ROOT
ATOM      1  C   UNL     1       1.091  -0.232  -0.354  1.00  0.00     0.384 C 
ATOM      2  F   UNL     1       1.103  -0.402  -1.701  1.00  0.00    -0.192 F 
ATOM      3  F   UNL     1       1.308   1.078  -0.080  1.00  0.00    -0.192 F 
ENDROOT
BRANCH   1   4
ATOM      4  C   UNL     1       2.129  -1.108   0.323  1.00  0.00     0.378 C 
ATOM      5  F   UNL     1       2.098  -0.879   1.676  1.00  0.00    -0.193 F 
ATOM      6  F   UNL     1       1.724  -2.421   0.193  1.00  0.00    -0.193 F 
BRANCH   4   7
ATOM      7  C   UNL     1       3.582  -1.047  -0.152  1.00  0.00     0.321 C 
ATOM      8  F   UNL     1       4.240  -2.059   0.544  1.00  0.00    -0.199 F 
ATOM      9  F   UNL     1       3.697  -1.445  -1.447  1.00  0.00    -0.199 F 
BRANCH   7  10
ATOM     10  C   UNL     1       4.401   0.181   0.145  1.00  0.00     0.136 C 
BRANCH  10  11
ATOM     11  C   UNL     1       3.994   1.402  -0.627  1.00  0.00     0.048 C 
ATOM     12  O   UNL     1       4.354   2.491  -0.106  1.00  0.00    -0.550 OA
ATOM     13  O   UNL     1       3.339   1.191  -1.678  1.00  0.00    -0.550 OA
ENDBRANCH  10  11
ENDBRANCH   7  10
ENDBRANCH   4   7
ENDBRANCH   1   4
BRANCH   1  14
ATOM     14  C   UNL     1      -0.302  -0.580   0.152  1.00  0.00     0.385 C 
ATOM     15  F   UNL     1      -0.602  -1.884  -0.116  1.00  0.00    -0.192 F 
ATOM     16  F   UNL     1      -0.364  -0.462   1.509  1.00  0.00    -0.192 F 
BRANCH  14  17
ATOM     17  C   UNL     1      -1.361   0.311  -0.480  1.00  0.00     0.385 C 
ATOM     18  F   UNL     1      -1.340   0.193  -1.835  1.00  0.00    -0.192 F 
ATOM     19  F   UNL     1      -1.118   1.620  -0.205  1.00  0.00    -0.192 F 
BRANCH  17  20
ATOM     20  C   UNL     1      -2.745  -0.055   0.029  1.00  0.00     0.387 C 
ATOM     21  F   UNL     1      -2.797   0.057   1.385  1.00  0.00    -0.192 F 
ATOM     22  F   UNL     1      -3.021  -1.361  -0.244  1.00  0.00    -0.192 F 
BRANCH  20  23
ATOM     23  C   UNL     1      -3.803   0.826  -0.594  1.00  0.00     0.409 C 
ATOM     24  F   UNL     1      -3.568   2.141  -0.321  1.00  0.00    -0.189 F 
ATOM     25  F   UNL     1      -3.791   0.717  -1.953  1.00  0.00    -0.189 F 
BRANCH  23  26
ATOM     26  C   UNL     1      -5.168   0.431  -0.064  1.00  0.00     0.460 C 
ATOM     27  F   UNL     1      -5.489  -0.852  -0.355  1.00  0.00    -0.165 F 
ATOM     28  F   UNL     1      -6.147   1.203  -0.604  1.00  0.00    -0.165 F 
ATOM     29  F   UNL     1      -5.267   0.571   1.279  1.00  0.00    -0.165 F 
ENDBRANCH  23  26
ENDBRANCH  20  23
ENDBRANCH  17  20
ENDBRANCH  14  17
ENDBRANCH   1  14
TORSDOF 9
