REMARK SMILES O=S(=O)([O-])CCC(F)(F)C(F)(F)C(F)(F)C(F)(F)C(F)(F)C(F)(F)C(F)(F)C(F)(F)F
REMARK SMILES IDX 13 1 14 2 15 3 10 4 11 5 12 6 7 7 8 8 9 9 6 10 5 11 2 12
REMARK SMILES IDX 1 13 3 14 4 15 16 16 17 17 18 18 19 19 20 20 21 21 22 22
REMARK SMILES IDX 23 23 24 24 25 25 26 26 27 27 28 28 29 29 30 30 31 31
REMARK H PARENT
ROOT
ATOM      1  C   UNL     1       0.051  -0.625  -1.630  1.00  0.00     0.384 C 
ATOM      2  F   UNL     1       0.755   0.340  -2.306  1.00  0.00    -0.192 F 
ATOM      3  F   UNL     1      -0.663  -1.261  -2.612  1.00  0.00    -0.192 F 
ENDROOT
BRANCH   1   4
ATOM      4  C   UNL     1      -0.914   0.061  -0.672  1.00  0.00     0.378 C 
ATOM      5  F   UNL     1      -0.207   0.818   0.213  1.00  0.00    -0.193 F 
ATOM      6  F   UNL     1      -1.653   0.952  -1.398  1.00  0.00    -0.193 F 
BRANCH   4   7
ATOM      7  C   UNL     1      -1.838  -0.895   0.076  1.00  0.00     0.317 C 
ATOM      8  F   UNL     1      -1.070  -1.735   0.832  1.00  0.00    -0.200 F 
ATOM      9  F   UNL     1      -2.496  -1.696  -0.802  1.00  0.00    -0.200 F 
BRANCH   7  10
ATOM     10  C   UNL     1      -2.834  -0.248   1.018  1.00  0.00     0.099 C 
BRANCH  10  11
ATOM     11  C   UNL     1      -3.894   0.589   0.316  1.00  0.00     0.129 C 
BRANCH  11  12
ATOM     12  S   UNL     1      -5.120   1.182   1.456  1.00  0.00     0.095 S 
ATOM     13  O   UNL     1      -6.002   1.971   0.602  1.00  0.00    -0.243 OA
ATOM     14  O   UNL     1      -4.328   1.955   2.410  1.00  0.00    -0.243 OA
ATOM     15  O   UNL     1      -5.705  -0.047   1.985  1.00  0.00    -0.748 OA
ENDBRANCH  11  12
ENDBRANCH  10  11
ENDBRANCH   7  10
ENDBRANCH   4   7
ENDBRANCH   1   4
BRANCH   1  16
ATOM     16  C   UNL     1       1.056  -1.613  -1.055  1.00  0.00     0.385 C 
ATOM     17  F   UNL     1       1.845  -2.064  -2.086  1.00  0.00    -0.192 F 
ATOM     18  F   UNL     1       0.399  -2.734  -0.634  1.00  0.00    -0.192 F 
BRANCH  16  19
ATOM     19  C   UNL     1       1.976  -1.128   0.061  1.00  0.00     0.385 C 
ATOM     20  F   UNL     1       1.250  -0.805   1.162  1.00  0.00    -0.192 F 
ATOM     21  F   UNL     1       2.756  -2.187   0.444  1.00  0.00    -0.192 F 
BRANCH  19  22
ATOM     22  C   UNL     1       2.881   0.029  -0.329  1.00  0.00     0.387 C 
ATOM     23  F   UNL     1       3.546  -0.271  -1.477  1.00  0.00    -0.192 F 
ATOM     24  F   UNL     1       2.134   1.127  -0.608  1.00  0.00    -0.192 F 
BRANCH  22  25
ATOM     25  C   UNL     1       3.867   0.346   0.773  1.00  0.00     0.409 C 
ATOM     26  F   UNL     1       3.215   0.631   1.935  1.00  0.00    -0.189 F 
ATOM     27  F   UNL     1       4.654  -0.735   1.041  1.00  0.00    -0.189 F 
BRANCH  25  28
ATOM     28  C   UNL     1       4.734   1.520   0.361  1.00  0.00     0.460 C 
ATOM     29  F   UNL     1       5.445   1.263  -0.763  1.00  0.00    -0.165 F 
ATOM     30  F   UNL     1       5.637   1.827   1.327  1.00  0.00    -0.165 F 
ATOM     31  F   UNL     1       4.016   2.643   0.130  1.00  0.00    -0.165 F 
ENDBRANCH  25  28
ENDBRANCH  22  25
ENDBRANCH  19  22
ENDBRANCH  16  19
ENDBRANCH   1  16
TORSDOF 10
