REMARK SMILES O=C([O-])C(F)(F)C(F)OC(F)(F)C(F)(F)C(F)(F)OC(F)(F)F
REMARK SMILES IDX 10 1 11 2 12 3 9 4 7 5 8 6 4 7 5 8 6 9 2 10 1 11 3 12 13 13
REMARK SMILES IDX 14 14 15 15 16 16 17 17 18 18 19 19 20 20 21 21 22 22 23 23
REMARK H PARENT
ROOT
ATOM      1  C   UNL     1       0.284  -0.941   0.994  1.00  0.00     0.431 C 
ATOM      2  F   UNL     1      -0.240  -0.420   2.134  1.00  0.00    -0.168 F 
ATOM      3  F   UNL     1      -0.033  -2.262   0.993  1.00  0.00    -0.168 F 
ENDROOT
BRANCH   1   4
ATOM      4  O   UNL     1      -0.351  -0.305  -0.092  1.00  0.00    -0.274 OA
BRANCH   4   5
ATOM      5  C   UNL     1      -1.740  -0.661  -0.167  1.00  0.00     0.379 C 
ATOM      6  F   UNL     1      -1.766  -1.863  -0.805  1.00  0.00    -0.209 F 
BRANCH   5   7
ATOM      7  C   UNL     1      -2.490   0.390  -0.964  1.00  0.00     0.341 C 
ATOM      8  F   UNL     1      -1.987   0.498  -2.230  1.00  0.00    -0.194 F 
ATOM      9  F   UNL     1      -2.317   1.619  -0.380  1.00  0.00    -0.194 F 
BRANCH   7  10
ATOM     10  C   UNL     1      -3.993   0.047  -0.966  1.00  0.00     0.117 C 
ATOM     11  O   UNL     1      -4.640   0.277  -2.032  1.00  0.00    -0.544 OA
ATOM     12  O   UNL     1      -4.454  -0.416   0.126  1.00  0.00    -0.544 OA
ENDBRANCH   7  10
ENDBRANCH   5   7
ENDBRANCH   4   5
ENDBRANCH   1   4
BRANCH   1  13
ATOM     13  C   UNL     1       1.799  -0.774   0.986  1.00  0.00     0.425 C 
ATOM     14  F   UNL     1       2.333  -1.379   2.096  1.00  0.00    -0.187 F 
ATOM     15  F   UNL     1       2.368  -1.420  -0.072  1.00  0.00    -0.187 F 
BRANCH  13  16
ATOM     16  C   UNL     1       2.187   0.706   0.978  1.00  0.00     0.435 C 
ATOM     17  F   UNL     1       3.535   0.835   1.155  1.00  0.00    -0.168 F 
ATOM     18  F   UNL     1       1.654   1.312   2.080  1.00  0.00    -0.168 F 
BRANCH  16  19
ATOM     19  O   UNL     1       1.833   1.533  -0.102  1.00  0.00    -0.221 OA
BRANCH  19  20
ATOM     20  C   UNL     1       2.405   1.099  -1.304  1.00  0.00     0.527 C 
ATOM     21  F   UNL     1       1.686   0.089  -1.820  1.00  0.00    -0.144 F 
ATOM     22  F   UNL     1       3.679   0.695  -1.142  1.00  0.00    -0.144 F 
ATOM     23  F   UNL     1       2.400   2.123  -2.180  1.00  0.00    -0.144 F 
ENDBRANCH  19  20
ENDBRANCH  16  19
ENDBRANCH  13  16
ENDBRANCH   1  13
TORSDOF 8
