REMARK SMILES CCNS(=O)(=O)C(F)(F)C(F)(F)C(F)(F)C(F)(F)C(F)(F)C(F)(F)C(F)(F)C(F)(F)F
REMARK SMILES IDX 13 1 14 2 15 3 10 4 11 5 12 6 7 7 8 8 9 9 4 10 5 11 6 12
REMARK SMILES IDX 3 13 2 15 1 16 16 17 17 18 18 19 19 20 20 21 21 22 22 23
REMARK SMILES IDX 23 24 24 25 25 26 26 27 27 28 28 29 29 30 30 31 31 32
REMARK H PARENT 3 14
ROOT
ATOM      1  C   UNL     1      -0.429   0.132   0.227  1.00  0.00     0.386 C 
ATOM      2  F   UNL     1      -0.038   0.280  -1.069  1.00  0.00    -0.192 F 
ATOM      3  F   UNL     1      -1.182   1.239   0.505  1.00  0.00    -0.192 F 
ENDROOT
BRANCH   1   4
ATOM      4  C   UNL     1       0.787   0.186   1.141  1.00  0.00     0.394 C 
ATOM      5  F   UNL     1       0.375   0.239   2.436  1.00  0.00    -0.191 F 
ATOM      6  F   UNL     1       1.404   1.389   0.899  1.00  0.00    -0.191 F 
BRANCH   4   7
ATOM      7  C   UNL     1       1.770  -0.942   0.934  1.00  0.00     0.427 C 
ATOM      8  F   UNL     1       1.958  -1.163  -0.402  1.00  0.00    -0.180 F 
ATOM      9  F   UNL     1       1.279  -2.106   1.446  1.00  0.00    -0.180 F 
BRANCH   7  10
ATOM     10  S   UNL     1       3.364  -0.500   1.746  1.00  0.00     0.284 S 
ATOM     11  O   UNL     1       3.113   0.151   3.016  1.00  0.00    -0.206 OA
ATOM     12  O   UNL     1       4.260  -1.639   1.683  1.00  0.00    -0.206 OA
BRANCH  10  13
ATOM     13  N   UNL     1       4.058   0.693   0.775  1.00  0.00    -0.210 NA
ATOM     14  H   UNL     1       3.709   1.635   0.967  1.00  0.00     0.141 HD
BRANCH  13  15
ATOM     15  C   UNL     1       4.416   0.377  -0.611  1.00  0.00     0.095 C 
ATOM     16  C   UNL     1       5.532   1.306  -1.054  1.00  0.00     0.022 C 
ENDBRANCH  13  15
ENDBRANCH  10  13
ENDBRANCH   7  10
ENDBRANCH   4   7
ENDBRANCH   1   4
BRANCH   1  17
ATOM     17  C   UNL     1      -1.297  -1.101   0.364  1.00  0.00     0.385 C 
ATOM     18  F   UNL     1      -0.538  -2.205   0.093  1.00  0.00    -0.192 F 
ATOM     19  F   UNL     1      -1.691  -1.240   1.658  1.00  0.00    -0.192 F 
BRANCH  17  20
ATOM     20  C   UNL     1      -2.508  -1.158  -0.562  1.00  0.00     0.385 C 
ATOM     21  F   UNL     1      -2.088  -1.214  -1.858  1.00  0.00    -0.192 F 
ATOM     22  F   UNL     1      -3.133  -2.354  -0.334  1.00  0.00    -0.192 F 
BRANCH  20  23
ATOM     23  C   UNL     1      -3.508  -0.029  -0.402  1.00  0.00     0.387 C 
ATOM     24  F   UNL     1      -3.764   0.176   0.917  1.00  0.00    -0.192 F 
ATOM     25  F   UNL     1      -2.966   1.127  -0.869  1.00  0.00    -0.192 F 
BRANCH  23  26
ATOM     26  C   UNL     1      -4.790  -0.323  -1.150  1.00  0.00     0.409 C 
ATOM     27  F   UNL     1      -4.526  -0.565  -2.465  1.00  0.00    -0.189 F 
ATOM     28  F   UNL     1      -5.378  -1.455  -0.670  1.00  0.00    -0.189 F 
BRANCH  26  29
ATOM     29  C   UNL     1      -5.741   0.850  -1.015  1.00  0.00     0.460 C 
ATOM     30  F   UNL     1      -5.228   1.991  -1.531  1.00  0.00    -0.165 F 
ATOM     31  F   UNL     1      -6.060   1.104   0.276  1.00  0.00    -0.165 F 
ATOM     32  F   UNL     1      -6.907   0.617  -1.668  1.00  0.00    -0.165 F 
ENDBRANCH  26  29
ENDBRANCH  23  26
ENDBRANCH  20  23
ENDBRANCH  17  20
ENDBRANCH   1  17
TORSDOF 10
