REMARK SMILES O=S(=O)([O-])C(F)(F)C(F)(F)OC(F)(F)C(F)(F)C(F)(F)C(F)(F)C(F)(F)C(F)(F)Cl
REMARK SMILES IDX 12 1 13 2 14 3 11 4 8 5 9 6 10 7 5 8 6 9 7 10 2 11 1 12 3 13
REMARK SMILES IDX 4 14 15 15 16 16 17 17 18 18 19 19 20 20 21 21 22 22 23 23
REMARK SMILES IDX 24 24 25 25 26 26 27 27 28 28 29 29 30 30
REMARK H PARENT
ROOT
ATOM      1  C   UNL     1       0.540   0.581  -0.187  1.00  0.00     0.430 C 
ATOM      2  F   UNL     1       0.249   0.554  -1.511  1.00  0.00    -0.168 F 
ATOM      3  F   UNL     1       0.821   1.859   0.151  1.00  0.00    -0.168 F 
ENDROOT
BRANCH   1   4
ATOM      4  O   UNL     1       1.669  -0.242   0.025  1.00  0.00    -0.244 OA
BRANCH   4   5
ATOM      5  C   UNL     1       2.883   0.404  -0.387  1.00  0.00     0.438 C 
ATOM      6  F   UNL     1       3.129   1.330   0.569  1.00  0.00    -0.167 F 
ATOM      7  F   UNL     1       2.616   1.055  -1.541  1.00  0.00    -0.167 F 
BRANCH   5   8
ATOM      8  C   UNL     1       3.988  -0.638  -0.517  1.00  0.00     0.423 C 
ATOM      9  F   UNL     1       4.111  -1.316   0.680  1.00  0.00    -0.180 F 
ATOM     10  F   UNL     1       3.586  -1.606  -1.417  1.00  0.00    -0.180 F 
BRANCH   8  11
ATOM     11  S   UNL     1       5.518   0.186  -1.014  1.00  0.00     0.171 S 
ATOM     12  O   UNL     1       5.225   0.805  -2.308  1.00  0.00    -0.236 OA
ATOM     13  O   UNL     1       5.809   1.148   0.051  1.00  0.00    -0.236 OA
ATOM     14  O   UNL     1       6.507  -0.895  -1.102  1.00  0.00    -0.743 OA
ENDBRANCH   8  11
ENDBRANCH   5   8
ENDBRANCH   4   5
ENDBRANCH   1   4
BRANCH   1  15
ATOM     15  C   UNL     1      -0.660   0.068   0.609  1.00  0.00     0.405 C 
ATOM     16  F   UNL     1      -0.386   0.067   1.943  1.00  0.00    -0.189 F 
ATOM     17  F   UNL     1      -0.914  -1.231   0.287  1.00  0.00    -0.189 F 
BRANCH  15  18
ATOM     18  C   UNL     1      -1.888   0.908   0.329  1.00  0.00     0.387 C 
ATOM     19  F   UNL     1      -2.234   0.861  -0.983  1.00  0.00    -0.192 F 
ATOM     20  F   UNL     1      -1.604   2.224   0.573  1.00  0.00    -0.192 F 
BRANCH  18  21
ATOM     21  C   UNL     1      -3.092   0.536   1.177  1.00  0.00     0.386 C 
ATOM     22  F   UNL     1      -4.082   1.454   0.921  1.00  0.00    -0.192 F 
ATOM     23  F   UNL     1      -2.768   0.749   2.494  1.00  0.00    -0.192 F 
BRANCH  21  24
ATOM     24  C   UNL     1      -3.707  -0.849   1.062  1.00  0.00     0.393 C 
ATOM     25  F   UNL     1      -4.724  -0.902   1.995  1.00  0.00    -0.191 F 
ATOM     26  F   UNL     1      -2.835  -1.811   1.468  1.00  0.00    -0.191 F 
BRANCH  24  27
ATOM     27  C   UNL     1      -4.322  -1.193  -0.297  1.00  0.00     0.390 C 
ATOM     28  F   UNL     1      -5.181  -2.245  -0.138  1.00  0.00    -0.181 F 
ATOM     29  F   UNL     1      -5.082  -0.170  -0.764  1.00  0.00    -0.181 F 
ATOM     30  Cl  UNL     1      -3.172  -1.692  -1.557  1.00  0.00    -0.041 Cl
ENDBRANCH  24  27
ENDBRANCH  21  24
ENDBRANCH  18  21
ENDBRANCH  15  18
ENDBRANCH   1  15
TORSDOF 9
