REMARK SMILES NS(=O)(=O)C(F)(F)C(F)(F)C(F)(F)C(F)(F)C(F)(F)C(F)(F)C(F)(F)C(F)(F)F
REMARK SMILES IDX 11 1 12 2 13 3 8 4 9 5 10 6 5 7 6 8 7 9 2 10 3 11 4 12 1 13
REMARK SMILES IDX 14 16 15 17 16 18 17 19 18 20 19 21 20 22 21 23 22 24 23 25
REMARK SMILES IDX 24 26 25 27 26 28 27 29 28 30 29 31
REMARK H PARENT 1 14 1 15
ROOT
ATOM      1  C   UNL     1       0.872   0.441   0.989  1.00  0.00     0.386 C 
ATOM      2  F   UNL     1       1.231   1.365   0.061  1.00  0.00    -0.192 F 
ATOM      3  F   UNL     1       0.311   1.177   2.001  1.00  0.00    -0.192 F 
ENDROOT
BRANCH   1   4
ATOM      4  C   UNL     1       2.107  -0.244   1.554  1.00  0.00     0.394 C 
ATOM      5  F   UNL     1       2.927   0.721   2.081  1.00  0.00    -0.191 F 
ATOM      6  F   UNL     1       1.713  -0.976   2.651  1.00  0.00    -0.191 F 
BRANCH   4   7
ATOM      7  C   UNL     1       2.920  -1.159   0.661  1.00  0.00     0.426 C 
ATOM      8  F   UNL     1       2.196  -2.277   0.353  1.00  0.00    -0.180 F 
ATOM      9  F   UNL     1       3.993  -1.629   1.380  1.00  0.00    -0.180 F 
BRANCH   7  10
ATOM     10  S   UNL     1       3.510  -0.319  -0.866  1.00  0.00     0.281 S 
ATOM     11  O   UNL     1       2.394   0.034  -1.715  1.00  0.00    -0.206 OA
ATOM     12  O   UNL     1       4.643  -1.030  -1.422  1.00  0.00    -0.206 OA
BRANCH  10  13
ATOM     13  N   UNL     1       4.160   1.149  -0.387  1.00  0.00    -0.223 NA
ATOM     14  H   UNL     1       3.684   1.931  -0.847  1.00  0.00     0.137 HD
ATOM     15  H   UNL     1       5.173   1.159  -0.537  1.00  0.00     0.137 HD
ENDBRANCH  10  13
ENDBRANCH   7  10
ENDBRANCH   4   7
ENDBRANCH   1   4
BRANCH   1  16
ATOM     16  C   UNL     1      -0.177  -0.512   0.442  1.00  0.00     0.385 C 
ATOM     17  F   UNL     1       0.348  -1.225  -0.585  1.00  0.00    -0.192 F 
ATOM     18  F   UNL     1      -0.506  -1.424   1.395  1.00  0.00    -0.192 F 
BRANCH  16  19
ATOM     19  C   UNL     1      -1.419   0.236  -0.020  1.00  0.00     0.385 C 
ATOM     20  F   UNL     1      -1.096   1.140  -0.980  1.00  0.00    -0.192 F 
ATOM     21  F   UNL     1      -1.934   0.951   1.016  1.00  0.00    -0.192 F 
BRANCH  19  22
ATOM     22  C   UNL     1      -2.480  -0.715  -0.541  1.00  0.00     0.387 C 
ATOM     23  F   UNL     1      -2.927  -1.499   0.481  1.00  0.00    -0.192 F 
ATOM     24  F   UNL     1      -1.915  -1.582  -1.436  1.00  0.00    -0.192 F 
BRANCH  22  25
ATOM     25  C   UNL     1      -3.652  -0.040  -1.225  1.00  0.00     0.409 C 
ATOM     26  F   UNL     1      -3.236   0.583  -2.366  1.00  0.00    -0.189 F 
ATOM     27  F   UNL     1      -4.521  -1.014  -1.646  1.00  0.00    -0.189 F 
BRANCH  25  28
ATOM     28  C   UNL     1      -4.392   0.941  -0.338  1.00  0.00     0.460 C 
ATOM     29  F   UNL     1      -5.526   1.386  -0.932  1.00  0.00    -0.165 F 
ATOM     30  F   UNL     1      -4.750   0.390   0.844  1.00  0.00    -0.165 F 
ATOM     31  F   UNL     1      -3.652   2.039  -0.066  1.00  0.00    -0.165 F 
ENDBRANCH  25  28
ENDBRANCH  22  25
ENDBRANCH  19  22
ENDBRANCH  16  19
ENDBRANCH   1  16
TORSDOF 9
