REMARK SMILES O=C([O-])C(F)(OC(F)(F)C(F)(F)C(F)(F)F)C(F)(F)F
REMARK SMILES IDX 6 1 4 2 5 3 2 4 1 5 3 6 17 7 18 8 19 9 20 10 7 11 8 12 9 13
REMARK SMILES IDX 10 14 11 15 12 16 13 17 14 18 15 19 16 20
REMARK H PARENT
ROOT
ATOM      1  O   UNL     1       0.029  -0.454   0.554  1.00  0.00    -0.265 OA
ENDROOT
BRANCH   1   2
ATOM      2  C   UNL     1       1.467  -0.618   0.492  1.00  0.00     0.350 C 
ATOM      3  F   UNL     1       1.735  -1.466   1.546  1.00  0.00    -0.195 F 
BRANCH   2   4
ATOM      4  C   UNL     1       2.213   0.705   0.774  1.00  0.00     0.116 C 
ATOM      5  O   UNL     1       3.416   0.790   0.401  1.00  0.00    -0.544 OA
ATOM      6  O   UNL     1       1.520   1.592   1.370  1.00  0.00    -0.544 OA
ENDBRANCH   2   4
BRANCH   2   7
ATOM      7  C   UNL     1       2.019  -1.251  -0.779  1.00  0.00     0.454 C 
ATOM      8  F   UNL     1       1.274  -2.365  -1.076  1.00  0.00    -0.165 F 
ATOM      9  F   UNL     1       3.291  -1.704  -0.680  1.00  0.00    -0.165 F 
ATOM     10  F   UNL     1       1.940  -0.474  -1.884  1.00  0.00    -0.165 F 
ENDBRANCH   2   7
ENDBRANCH   1   2
BRANCH   1  11
ATOM     11  C   UNL     1      -0.522   0.310  -0.502  1.00  0.00     0.432 C 
ATOM     12  F   UNL     1      -0.812  -0.590  -1.485  1.00  0.00    -0.168 F 
ATOM     13  F   UNL     1       0.397   1.142  -1.043  1.00  0.00    -0.168 F 
BRANCH  11  14
ATOM     14  C   UNL     1      -1.785   1.077  -0.133  1.00  0.00     0.430 C 
ATOM     15  F   UNL     1      -1.547   2.086   0.749  1.00  0.00    -0.186 F 
ATOM     16  F   UNL     1      -2.301   1.686  -1.250  1.00  0.00    -0.186 F 
BRANCH  14  17
ATOM     17  C   UNL     1      -2.806   0.118   0.434  1.00  0.00     0.462 C 
ATOM     18  F   UNL     1      -3.976   0.763   0.707  1.00  0.00    -0.165 F 
ATOM     19  F   UNL     1      -3.127  -0.875  -0.433  1.00  0.00    -0.165 F 
ATOM     20  F   UNL     1      -2.428  -0.473   1.589  1.00  0.00    -0.165 F 
ENDBRANCH  14  17
ENDBRANCH  11  14
ENDBRANCH   1  11
TORSDOF 6
