REMARK SMILES O=C([O-])C(F)(OC(F)(F)C(F)(OC(F)(F)C(F)(F)C(F)(F)F)C(F)(F)F)C(F)(F)F
REMARK SMILES IDX 10 1 11 2 7 3 8 4 9 5 6 6 4 7 5 8 2 9 1 10 3 11 27 12 28 13
REMARK SMILES IDX 29 14 30 15 23 16 24 17 25 18 26 19 12 20 13 21 14 22 15 23
REMARK SMILES IDX 16 24 17 25 18 26 19 27 20 28 21 29 22 30
REMARK H PARENT
ROOT
ATOM      1  C   UNL     1       0.156  -0.367  -0.962  1.00  0.00     0.401 C 
ATOM      2  F   UNL     1      -0.119   0.571  -1.911  1.00  0.00    -0.191 F 
ENDROOT
BRANCH   1   3
ATOM      3  C   UNL     1      -1.079  -0.606  -0.075  1.00  0.00     0.427 C 
ATOM      4  F   UNL     1      -0.790  -1.553   0.860  1.00  0.00    -0.169 F 
ATOM      5  F   UNL     1      -2.128  -1.080  -0.773  1.00  0.00    -0.169 F 
BRANCH   3   6
ATOM      6  O   UNL     1      -1.430   0.557   0.663  1.00  0.00    -0.265 OA
BRANCH   6   7
ATOM      7  C   UNL     1      -2.829   0.635   1.025  1.00  0.00     0.350 C 
ATOM      8  F   UNL     1      -2.893   1.763   1.816  1.00  0.00    -0.195 F 
BRANCH   7   9
ATOM      9  C   UNL     1      -3.737   0.886  -0.201  1.00  0.00     0.116 C 
ATOM     10  O   UNL     1      -4.964   0.610  -0.085  1.00  0.00    -0.544 OA
ATOM     11  O   UNL     1      -3.143   1.357  -1.224  1.00  0.00    -0.544 OA
ENDBRANCH   7   9
BRANCH   7  12
ATOM     12  C   UNL     1      -3.380  -0.540   1.823  1.00  0.00     0.454 C 
ATOM     13  F   UNL     1      -3.488  -1.696   1.127  1.00  0.00    -0.165 F 
ATOM     14  F   UNL     1      -2.514  -0.824   2.849  1.00  0.00    -0.165 F 
ATOM     15  F   UNL     1      -4.568  -0.308   2.431  1.00  0.00    -0.165 F 
ENDBRANCH   7  12
ENDBRANCH   6   7
ENDBRANCH   3   6
ENDBRANCH   1   3
BRANCH   1  16
ATOM     16  C   UNL     1       0.450  -1.719  -1.621  1.00  0.00     0.458 C 
ATOM     17  F   UNL     1       1.457  -1.631  -2.528  1.00  0.00    -0.165 F 
ATOM     18  F   UNL     1      -0.602  -2.242  -2.288  1.00  0.00    -0.165 F 
ATOM     19  F   UNL     1       0.848  -2.645  -0.714  1.00  0.00    -0.165 F 
ENDBRANCH   1  16
BRANCH   1  20
ATOM     20  O   UNL     1       1.210   0.193  -0.140  1.00  0.00    -0.262 OA
BRANCH  20  21
ATOM     21  C   UNL     1       2.457   0.322  -0.786  1.00  0.00     0.432 C 
ATOM     22  F   UNL     1       3.018  -0.912  -0.790  1.00  0.00    -0.168 F 
ATOM     23  F   UNL     1       2.256   0.661  -2.083  1.00  0.00    -0.168 F 
BRANCH  21  24
ATOM     24  C   UNL     1       3.395   1.327  -0.132  1.00  0.00     0.430 C 
ATOM     25  F   UNL     1       4.571   1.394  -0.831  1.00  0.00    -0.186 F 
ATOM     26  F   UNL     1       2.869   2.585  -0.179  1.00  0.00    -0.186 F 
BRANCH  24  27
ATOM     27  C   UNL     1       3.664   0.914   1.295  1.00  0.00     0.462 C 
ATOM     28  F   UNL     1       4.234  -0.313   1.377  1.00  0.00    -0.165 F 
ATOM     29  F   UNL     1       4.527   1.775   1.899  1.00  0.00    -0.165 F 
ATOM     30  F   UNL     1       2.552   0.885   2.062  1.00  0.00    -0.165 F 
ENDBRANCH  24  27
ENDBRANCH  21  24
ENDBRANCH  20  21
ENDBRANCH   1  20
TORSDOF 10
