REMARK SMILES CNS(=O)(=O)C(F)(F)C(F)(F)C(F)(F)C(F)(F)C(F)(F)C(F)(F)C(F)(F)C(F)(F)F
REMARK SMILES IDX 12 1 13 2 14 3 9 4 10 5 11 6 6 7 7 8 8 9 3 10 4 11 5 12 2 13
REMARK SMILES IDX 1 14 15 16 16 17 17 18 18 19 19 20 20 21 21 22 22 23 23 24
REMARK SMILES IDX 24 25 25 26 26 27 27 28 28 29 29 30 30 31
REMARK H PARENT 2 15
ROOT
ATOM      1  C   UNL     1       0.295   0.205  -0.619  1.00  0.00     0.386 C 
ATOM      2  F   UNL     1       0.934  -0.142  -1.777  1.00  0.00    -0.192 F 
ATOM      3  F   UNL     1       1.001   1.247  -0.100  1.00  0.00    -0.192 F 
ENDROOT
BRANCH   1   4
ATOM      4  C   UNL     1      -1.112   0.659  -0.983  1.00  0.00     0.394 C 
ATOM      5  F   UNL     1      -1.744  -0.332  -1.678  1.00  0.00    -0.191 F 
ATOM      6  F   UNL     1      -0.977   1.691  -1.866  1.00  0.00    -0.191 F 
BRANCH   4   7
ATOM      7  C   UNL     1      -1.944   1.072   0.208  1.00  0.00     0.427 C 
ATOM      8  F   UNL     1      -2.163  -0.004   1.022  1.00  0.00    -0.180 F 
ATOM      9  F   UNL     1      -1.263   1.981   0.964  1.00  0.00    -0.180 F 
BRANCH   7  10
ATOM     10  S   UNL     1      -3.557   1.751  -0.367  1.00  0.00     0.284 S 
ATOM     11  O   UNL     1      -3.365   2.662  -1.475  1.00  0.00    -0.206 OA
ATOM     12  O   UNL     1      -4.324   2.178   0.788  1.00  0.00    -0.206 OA
BRANCH  10  13
ATOM     13  N   UNL     1      -4.392   0.443  -1.021  1.00  0.00    -0.213 NA
ATOM     14  C   UNL     1      -4.740  -0.693  -0.173  1.00  0.00     0.120 C 
ATOM     15  H   UNL     1      -4.214   0.263  -2.011  1.00  0.00     0.140 HD
ENDBRANCH  10  13
ENDBRANCH   7  10
ENDBRANCH   4   7
ENDBRANCH   1   4
BRANCH   1  16
ATOM     16  C   UNL     1       0.379  -0.957   0.337  1.00  0.00     0.385 C 
ATOM     17  F   UNL     1       0.003  -0.541   1.579  1.00  0.00    -0.192 F 
ATOM     18  F   UNL     1      -0.555  -1.887  -0.032  1.00  0.00    -0.192 F 
BRANCH  16  19
ATOM     19  C   UNL     1       1.736  -1.652   0.436  1.00  0.00     0.385 C 
ATOM     20  F   UNL     1       1.541  -2.689   1.329  1.00  0.00    -0.192 F 
ATOM     21  F   UNL     1       2.050  -2.268  -0.734  1.00  0.00    -0.192 F 
BRANCH  19  22
ATOM     22  C   UNL     1       2.912  -0.830   0.958  1.00  0.00     0.387 C 
ATOM     23  F   UNL     1       3.726  -1.668   1.678  1.00  0.00    -0.192 F 
ATOM     24  F   UNL     1       2.466   0.090   1.852  1.00  0.00    -0.192 F 
BRANCH  22  25
ATOM     25  C   UNL     1       3.770  -0.197  -0.117  1.00  0.00     0.409 C 
ATOM     26  F   UNL     1       4.275  -1.161  -0.939  1.00  0.00    -0.189 F 
ATOM     27  F   UNL     1       3.038   0.614  -0.918  1.00  0.00    -0.189 F 
BRANCH  25  28
ATOM     28  C   UNL     1       4.903   0.587   0.523  1.00  0.00     0.460 C 
ATOM     29  F   UNL     1       4.443   1.589   1.309  1.00  0.00    -0.165 F 
ATOM     30  F   UNL     1       5.692   1.161  -0.419  1.00  0.00    -0.165 F 
ATOM     31  F   UNL     1       5.707  -0.186   1.286  1.00  0.00    -0.165 F 
ENDBRANCH  25  28
ENDBRANCH  22  25
ENDBRANCH  19  22
ENDBRANCH  16  19
ENDBRANCH   1  16
TORSDOF 9
