REMARK SMILES O=S(=O)([O-])C(F)(F)C(F)(F)C(F)(F)C(F)(F)F
REMARK SMILES IDX 8 1 9 2 10 3 5 4 6 5 7 6 2 7 1 8 3 9 4 10 11 11 12 12 13 13
REMARK SMILES IDX 14 14 15 15 16 16 17 17
REMARK H PARENT
ROOT
ATOM      1  C   UNL     1      -0.223  -0.746  -0.327  1.00  0.00     0.394 C 
ATOM      2  F   UNL     1       0.341  -1.958  -0.022  1.00  0.00    -0.191 F 
ATOM      3  F   UNL     1      -1.276  -1.102  -1.159  1.00  0.00    -0.191 F 
ENDROOT
BRANCH   1   4
ATOM      4  C   UNL     1       0.720   0.097  -1.157  1.00  0.00     0.402 C 
ATOM      5  F   UNL     1       1.112  -0.646  -2.251  1.00  0.00    -0.183 F 
ATOM      6  F   UNL     1       0.008   1.141  -1.703  1.00  0.00    -0.183 F 
BRANCH   4   7
ATOM      7  S   UNL     1       2.129   0.660  -0.170  1.00  0.00     0.168 S 
ATOM      8  O   UNL     1       2.614  -0.534   0.521  1.00  0.00    -0.236 OA
ATOM      9  O   UNL     1       3.076   1.214  -1.139  1.00  0.00    -0.236 OA
ATOM     10  O   UNL     1       1.550   1.663   0.724  1.00  0.00    -0.743 OA
ENDBRANCH   4   7
ENDBRANCH   1   4
BRANCH   1  11
ATOM     11  C   UNL     1      -0.839  -0.158   0.926  1.00  0.00     0.410 C 
ATOM     12  F   UNL     1       0.052   0.013   1.931  1.00  0.00    -0.189 F 
ATOM     13  F   UNL     1      -1.714  -1.109   1.430  1.00  0.00    -0.189 F 
BRANCH  11  14
ATOM     14  C   UNL     1      -1.655   1.098   0.660  1.00  0.00     0.460 C 
ATOM     15  F   UNL     1      -2.636   0.860  -0.252  1.00  0.00    -0.165 F 
ATOM     16  F   UNL     1      -0.962   2.153   0.201  1.00  0.00    -0.165 F 
ATOM     17  F   UNL     1      -2.295   1.513   1.787  1.00  0.00    -0.165 F 
ENDBRANCH  11  14
ENDBRANCH   1  11
TORSDOF 4
