REMARK SMILES O=C([O-])C(F)(F)C(F)(F)C(F)(F)C(F)(F)C(F)(F)C(F)(F)C(F)(F)C(F)(F)C(F)(F)F
REMARK SMILES IDX 13 1 14 2 15 3 10 4 11 5 12 6 7 7 8 8 9 9 4 10 5 11 6 12
REMARK SMILES IDX 2 13 1 14 3 15 16 16 17 17 18 18 19 19 20 20 21 21 22 22
REMARK SMILES IDX 23 23 24 24 25 25 26 26 27 27 28 28 29 29 30 30 31 31
REMARK H PARENT
ROOT
ATOM      1  C   UNL     1      -0.704  -0.408   0.196  1.00  0.00     0.385 C 
ATOM      2  F   UNL     1      -0.607   0.251   1.383  1.00  0.00    -0.192 F 
ATOM      3  F   UNL     1      -0.443  -1.717   0.478  1.00  0.00    -0.192 F 
ENDROOT
BRANCH   1   4
ATOM      4  C   UNL     1      -2.093  -0.255  -0.402  1.00  0.00     0.385 C 
ATOM      5  F   UNL     1      -2.294   1.046  -0.719  1.00  0.00    -0.192 F 
ATOM      6  F   UNL     1      -2.139  -0.931  -1.588  1.00  0.00    -0.192 F 
BRANCH   4   7
ATOM      7  C   UNL     1      -3.145  -0.809   0.548  1.00  0.00     0.384 C 
ATOM      8  F   UNL     1      -2.866  -2.146   0.750  1.00  0.00    -0.192 F 
ATOM      9  F   UNL     1      -3.025  -0.264   1.790  1.00  0.00    -0.192 F 
BRANCH   7  10
ATOM     10  C   UNL     1      -4.550  -0.712   0.008  1.00  0.00     0.355 C 
ATOM     11  F   UNL     1      -4.654  -1.436  -1.151  1.00  0.00    -0.193 F 
ATOM     12  F   UNL     1      -5.432  -1.293   0.882  1.00  0.00    -0.193 F 
BRANCH  10  13
ATOM     13  C   UNL     1      -4.980   0.747  -0.229  1.00  0.00     0.118 C 
ATOM     14  O   UNL     1      -4.562   1.592   0.619  1.00  0.00    -0.544 OA
ATOM     15  O   UNL     1      -5.696   0.973  -1.249  1.00  0.00    -0.544 OA
ENDBRANCH  10  13
ENDBRANCH   7  10
ENDBRANCH   4   7
ENDBRANCH   1   4
BRANCH   1  16
ATOM     16  C   UNL     1       0.363   0.113  -0.754  1.00  0.00     0.385 C 
ATOM     17  F   UNL     1       0.304  -0.552  -1.940  1.00  0.00    -0.192 F 
ATOM     18  F   UNL     1       0.158   1.425  -1.045  1.00  0.00    -0.192 F 
BRANCH  16  19
ATOM     19  C   UNL     1       1.751  -0.055  -0.152  1.00  0.00     0.385 C 
ATOM     20  F   UNL     1       1.825   0.585   1.045  1.00  0.00    -0.192 F 
ATOM     21  F   UNL     1       2.010  -1.365   0.103  1.00  0.00    -0.192 F 
BRANCH  19  22
ATOM     22  C   UNL     1       2.825   0.500  -1.068  1.00  0.00     0.387 C 
ATOM     23  F   UNL     1       2.654   0.015  -2.336  1.00  0.00    -0.192 F 
ATOM     24  F   UNL     1       2.689   1.852  -1.180  1.00  0.00    -0.192 F 
BRANCH  22  25
ATOM     25  C   UNL     1       4.241   0.168  -0.641  1.00  0.00     0.409 C 
ATOM     26  F   UNL     1       5.106   0.722  -1.553  1.00  0.00    -0.189 F 
ATOM     27  F   UNL     1       4.459  -1.179  -0.725  1.00  0.00    -0.189 F 
BRANCH  25  28
ATOM     28  C   UNL     1       4.599   0.664   0.745  1.00  0.00     0.460 C 
ATOM     29  F   UNL     1       3.947  -0.006   1.720  1.00  0.00    -0.165 F 
ATOM     30  F   UNL     1       4.336   1.980   0.905  1.00  0.00    -0.165 F 
ATOM     31  F   UNL     1       5.923   0.494   0.996  1.00  0.00    -0.165 F 
ENDBRANCH  25  28
ENDBRANCH  22  25
ENDBRANCH  19  22
ENDBRANCH  16  19
ENDBRANCH   1  16
TORSDOF 9
