REMARK SMILES O=C([O-])C(F)(F)C(F)(F)C(F)(F)C(F)(F)C(F)(F)C(F)(F)C(F)(F)C(F)(F)C(F)(F)C(F)(F)C(F)(F)F
REMARK SMILES IDX 16 1 17 2 18 3 13 4 14 5 15 6 10 7 11 8 12 9 7 10 8 11 9 12
REMARK SMILES IDX 4 13 5 14 6 15 2 16 1 17 3 18 19 19 20 20 21 21 22 22 23 23
REMARK SMILES IDX 24 24 25 25 26 26 27 27 28 28 29 29 30 30 31 31 32 32 33 33
REMARK SMILES IDX 34 34 35 35 36 36 37 37
REMARK H PARENT
ROOT
ATOM      1  C   UNL     1       1.021  -0.134   1.131  1.00  0.00     0.385 C 
ATOM      2  F   UNL     1       2.192   0.552   1.067  1.00  0.00    -0.192 F 
ATOM      3  F   UNL     1       0.666  -0.011   2.458  1.00  0.00    -0.192 F 
ENDROOT
BRANCH   1   4
ATOM      4  C   UNL     1       1.179  -1.619   0.834  1.00  0.00     0.385 C 
ATOM      5  F   UNL     1       0.995  -1.955  -0.463  1.00  0.00    -0.192 F 
ATOM      6  F   UNL     1       0.108  -2.238   1.465  1.00  0.00    -0.192 F 
BRANCH   4   7
ATOM      7  C   UNL     1       2.431  -2.260   1.413  1.00  0.00     0.385 C 
ATOM      8  F   UNL     1       2.408  -2.021   2.775  1.00  0.00    -0.192 F 
ATOM      9  F   UNL     1       2.256  -3.627   1.325  1.00  0.00    -0.192 F 
BRANCH   7  10
ATOM     10  C   UNL     1       3.844  -1.949   0.923  1.00  0.00     0.384 C 
ATOM     11  F   UNL     1       4.207  -0.669   1.208  1.00  0.00    -0.192 F 
ATOM     12  F   UNL     1       4.685  -2.698   1.744  1.00  0.00    -0.192 F 
BRANCH  10  13
ATOM     13  C   UNL     1       4.185  -2.346  -0.496  1.00  0.00     0.355 C 
ATOM     14  F   UNL     1       5.544  -2.288  -0.675  1.00  0.00    -0.193 F 
ATOM     15  F   UNL     1       3.833  -3.646  -0.728  1.00  0.00    -0.193 F 
BRANCH  13  16
ATOM     16  C   UNL     1       3.532  -1.445  -1.549  1.00  0.00     0.118 C 
ATOM     17  O   UNL     1       2.798  -0.523  -1.080  1.00  0.00    -0.544 OA
ATOM     18  O   UNL     1       3.751  -1.709  -2.765  1.00  0.00    -0.544 OA
ENDBRANCH  13  16
ENDBRANCH  10  13
ENDBRANCH   7  10
ENDBRANCH   4   7
ENDBRANCH   1   4
BRANCH   1  19
ATOM     19  C   UNL     1      -0.034   0.591   0.299  1.00  0.00     0.385 C 
ATOM     20  F   UNL     1       0.298   0.683  -1.011  1.00  0.00    -0.192 F 
ATOM     21  F   UNL     1      -0.078   1.887   0.749  1.00  0.00    -0.192 F 
BRANCH  19  22
ATOM     22  C   UNL     1      -1.431   0.013   0.407  1.00  0.00     0.385 C 
ATOM     23  F   UNL     1      -1.443  -1.291   0.004  1.00  0.00    -0.192 F 
ATOM     24  F   UNL     1      -1.830  -0.009   1.711  1.00  0.00    -0.192 F 
BRANCH  22  25
ATOM     25  C   UNL     1      -2.481   0.741  -0.427  1.00  0.00     0.385 C 
ATOM     26  F   UNL     1      -2.211   0.604  -1.753  1.00  0.00    -0.192 F 
ATOM     27  F   UNL     1      -3.680   0.102  -0.239  1.00  0.00    -0.192 F 
BRANCH  25  28
ATOM     28  C   UNL     1      -2.672   2.210  -0.109  1.00  0.00     0.387 C 
ATOM     29  F   UNL     1      -1.635   2.939  -0.604  1.00  0.00    -0.192 F 
ATOM     30  F   UNL     1      -2.639   2.390   1.246  1.00  0.00    -0.192 F 
BRANCH  28  31
ATOM     31  C   UNL     1      -3.974   2.790  -0.626  1.00  0.00     0.409 C 
ATOM     32  F   UNL     1      -5.038   2.213   0.008  1.00  0.00    -0.189 F 
ATOM     33  F   UNL     1      -4.030   4.115  -0.267  1.00  0.00    -0.189 F 
BRANCH  31  34
ATOM     34  C   UNL     1      -4.136   2.675  -2.129  1.00  0.00     0.460 C 
ATOM     35  F   UNL     1      -5.247   3.336  -2.549  1.00  0.00    -0.165 F 
ATOM     36  F   UNL     1      -3.090   3.201  -2.802  1.00  0.00    -0.165 F 
ATOM     37  F   UNL     1      -4.285   1.396  -2.537  1.00  0.00    -0.165 F 
ENDBRANCH  31  34
ENDBRANCH  28  31
ENDBRANCH  25  28
ENDBRANCH  22  25
ENDBRANCH  19  22
ENDBRANCH   1  19
TORSDOF 11
