REMARK SMILES O=S(=O)([O-])C(F)(F)C(F)(F)C(F)(F)C(F)(F)C(F)(F)C(F)(F)C(F)(F)C(F)(F)C(F)(F)C(F)(F)F
REMARK SMILES IDX 17 1 18 2 19 3 14 4 15 5 16 6 11 7 12 8 13 9 8 10 9 11 10 12
REMARK SMILES IDX 5 13 6 14 7 15 2 16 1 17 3 18 4 19 20 20 21 21 22 22 23 23
REMARK SMILES IDX 24 24 25 25 26 26 27 27 28 28 29 29 30 30 31 31 32 32 33 33
REMARK SMILES IDX 34 34 35 35
REMARK H PARENT
ROOT
ATOM      1  C   UNL     1       0.077  -1.166  -1.759  1.00  0.00     0.385 C 
ATOM      2  F   UNL     1       0.821  -2.280  -2.044  1.00  0.00    -0.192 F 
ATOM      3  F   UNL     1      -0.663  -0.957  -2.901  1.00  0.00    -0.192 F 
ENDROOT
BRANCH   1   4
ATOM      4  C   UNL     1       1.004   0.030  -1.583  1.00  0.00     0.385 C 
ATOM      5  F   UNL     1       0.249   1.165  -1.545  1.00  0.00    -0.192 F 
ATOM      6  F   UNL     1       1.754   0.147  -2.721  1.00  0.00    -0.192 F 
BRANCH   4   7
ATOM      7  C   UNL     1       1.908  -0.064  -0.364  1.00  0.00     0.385 C 
ATOM      8  F   UNL     1       1.117  -0.016   0.743  1.00  0.00    -0.192 F 
ATOM      9  F   UNL     1       2.495  -1.280  -0.379  1.00  0.00    -0.192 F 
BRANCH   7  10
ATOM     10  C   UNL     1       2.905   1.083  -0.348  1.00  0.00     0.392 C 
ATOM     11  F   UNL     1       2.192   2.252  -0.563  1.00  0.00    -0.191 F 
ATOM     12  F   UNL     1       3.734   1.017  -1.427  1.00  0.00    -0.191 F 
BRANCH  10  13
ATOM     13  C   UNL     1       3.659   1.280   0.949  1.00  0.00     0.402 C 
ATOM     14  F   UNL     1       4.477   2.383   0.805  1.00  0.00    -0.183 F 
ATOM     15  F   UNL     1       2.759   1.655   1.925  1.00  0.00    -0.183 F 
BRANCH  13  16
ATOM     16  S   UNL     1       4.579  -0.210   1.409  1.00  0.00     0.168 S 
ATOM     17  O   UNL     1       3.565  -1.087   1.998  1.00  0.00    -0.236 OA
ATOM     18  O   UNL     1       5.140  -0.710   0.155  1.00  0.00    -0.236 OA
ATOM     19  O   UNL     1       5.587   0.245   2.369  1.00  0.00    -0.743 OA
ENDBRANCH  13  16
ENDBRANCH  10  13
ENDBRANCH   7  10
ENDBRANCH   4   7
ENDBRANCH   1   4
BRANCH   1  20
ATOM     20  C   UNL     1      -0.893  -1.509  -0.636  1.00  0.00     0.385 C 
ATOM     21  F   UNL     1      -0.224  -1.936   0.462  1.00  0.00    -0.192 F 
ATOM     22  F   UNL     1      -1.632  -2.592  -1.042  1.00  0.00    -0.192 F 
BRANCH  20  23
ATOM     23  C   UNL     1      -1.851  -0.384  -0.277  1.00  0.00     0.385 C 
ATOM     24  F   UNL     1      -1.180   0.670   0.247  1.00  0.00    -0.192 F 
ATOM     25  F   UNL     1      -2.452   0.077  -1.407  1.00  0.00    -0.192 F 
BRANCH  23  26
ATOM     26  C   UNL     1      -2.919  -0.845   0.698  1.00  0.00     0.387 C 
ATOM     27  F   UNL     1      -2.341  -1.519   1.736  1.00  0.00    -0.192 F 
ATOM     28  F   UNL     1      -3.735  -1.754   0.090  1.00  0.00    -0.192 F 
BRANCH  26  29
ATOM     29  C   UNL     1      -3.759   0.274   1.282  1.00  0.00     0.409 C 
ATOM     30  F   UNL     1      -4.679  -0.279   2.138  1.00  0.00    -0.189 F 
ATOM     31  F   UNL     1      -2.993   1.089   2.063  1.00  0.00    -0.189 F 
BRANCH  29  32
ATOM     32  C   UNL     1      -4.488   1.094   0.236  1.00  0.00     0.460 C 
ATOM     33  F   UNL     1      -5.210   0.322  -0.608  1.00  0.00    -0.165 F 
ATOM     34  F   UNL     1      -3.648   1.839  -0.514  1.00  0.00    -0.165 F 
ATOM     35  F   UNL     1      -5.355   1.966   0.811  1.00  0.00    -0.165 F 
ENDBRANCH  29  32
ENDBRANCH  26  29
ENDBRANCH  23  26
ENDBRANCH  20  23
ENDBRANCH   1  20
TORSDOF 10
