REMARK SMILES O=S(=O)([O-])C1(F)C(F)(F)C(F)(F)C(F)(C(F)(F)C(F)(F)F)C(F)(F)C1(F)F
REMARK SMILES IDX 5 1 6 2 7 3 8 4 9 5 10 6 11 7 12 8 13 9 14 10 22 11 23 12
REMARK SMILES IDX 24 13 25 14 26 15 27 16 2 17 1 18 3 19 4 20 15 21 16 22
REMARK SMILES IDX 17 23 18 24 19 25 20 26 21 27
REMARK H PARENT
ROOT
ATOM      1  C   UNL     1       1.775   0.372   0.706  1.00  0.00     0.336 C 
ATOM      2  F   UNL     1       1.721   1.061   1.908  1.00  0.00    -0.213 F 
ATOM      3  C   UNL     1       1.094   1.233  -0.345  1.00  0.00     0.366 C 
ATOM      4  F   UNL     1       1.413   0.912  -1.622  1.00  0.00    -0.194 F 
ATOM      5  F   UNL     1       1.405   2.548  -0.184  1.00  0.00    -0.194 F 
ATOM      6  C   UNL     1      -0.413   1.079  -0.225  1.00  0.00     0.360 C 
ATOM      7  F   UNL     1      -0.798   1.355   1.047  1.00  0.00    -0.195 F 
ATOM      8  F   UNL     1      -1.062   1.988  -1.002  1.00  0.00    -0.195 F 
ATOM      9  C   UNL     1      -0.892  -0.309  -0.619  1.00  0.00     0.320 C 
ATOM     10  F   UNL     1      -1.059  -0.346  -1.987  1.00  0.00    -0.223 F 
ATOM     11  C   UNL     1       0.168  -1.357  -0.264  1.00  0.00     0.360 C 
ATOM     12  F   UNL     1      -0.422  -2.559  -0.033  1.00  0.00    -0.195 F 
ATOM     13  F   UNL     1       0.936  -1.553  -1.362  1.00  0.00    -0.195 F 
ATOM     14  C   UNL     1       1.024  -0.936   0.928  1.00  0.00     0.366 C 
ATOM     15  F   UNL     1       1.783  -1.959   1.380  1.00  0.00    -0.194 F 
ATOM     16  F   UNL     1       0.127  -0.723   1.954  1.00  0.00    -0.194 F 
ENDROOT
BRANCH   1  17
ATOM     17  S   UNL     1       3.447   0.050   0.223  1.00  0.00     0.144 S 
ATOM     18  O   UNL     1       3.328  -0.968  -0.814  1.00  0.00    -0.239 OA
ATOM     19  O   UNL     1       4.088  -0.417   1.450  1.00  0.00    -0.239 OA
ATOM     20  O   UNL     1       3.947   1.337  -0.251  1.00  0.00    -0.745 OA
ENDBRANCH   1  17
BRANCH   9  21
ATOM     21  C   UNL     1      -2.251  -0.632  -0.015  1.00  0.00     0.387 C 
ATOM     22  F   UNL     1      -2.157  -0.770   1.334  1.00  0.00    -0.192 F 
ATOM     23  F   UNL     1      -2.652  -1.861  -0.472  1.00  0.00    -0.192 F 
BRANCH  21  24
ATOM     24  C   UNL     1      -3.354   0.371  -0.355  1.00  0.00     0.457 C 
ATOM     25  F   UNL     1      -3.140   1.590   0.188  1.00  0.00    -0.165 F 
ATOM     26  F   UNL     1      -4.556  -0.049   0.119  1.00  0.00    -0.165 F 
ATOM     27  F   UNL     1      -3.500   0.543  -1.688  1.00  0.00    -0.165 F 
ENDBRANCH  21  24
ENDBRANCH   9  21
TORSDOF 3
