REMARK SMILES O=C([O-])C(F)(F)C(F)(F)C(F)(F)C(F)(F)C(F)(F)C(F)(F)F
REMARK SMILES IDX 10 1 11 2 12 3 7 4 8 5 9 6 4 7 5 8 6 9 2 10 1 11 3 12 13 13
REMARK SMILES IDX 14 14 15 15 16 16 17 17 18 18 19 19 20 20 21 21 22 22
REMARK H PARENT
ROOT
ATOM      1  C   UNL     1      -0.061  -0.302  -0.562  1.00  0.00     0.385 C 
ATOM      2  F   UNL     1      -0.192  -1.654  -0.450  1.00  0.00    -0.192 F 
ATOM      3  F   UNL     1       0.538  -0.109  -1.782  1.00  0.00    -0.192 F 
ENDROOT
BRANCH   1   4
ATOM      4  C   UNL     1      -1.420   0.382  -0.621  1.00  0.00     0.384 C 
ATOM      5  F   UNL     1      -1.219   1.693  -0.947  1.00  0.00    -0.192 F 
ATOM      6  F   UNL     1      -2.078  -0.164  -1.693  1.00  0.00    -0.192 F 
BRANCH   4   7
ATOM      7  C   UNL     1      -2.218   0.237   0.647  1.00  0.00     0.355 C 
ATOM      8  F   UNL     1      -2.162  -1.046   1.112  1.00  0.00    -0.193 F 
ATOM      9  F   UNL     1      -1.722   1.025   1.643  1.00  0.00    -0.193 F 
BRANCH   7  10
ATOM     10  C   UNL     1      -3.664   0.643   0.330  1.00  0.00     0.118 C 
ATOM     11  O   UNL     1      -3.886   1.887   0.225  1.00  0.00    -0.544 OA
ATOM     12  O   UNL     1      -4.502  -0.302   0.206  1.00  0.00    -0.544 OA
ENDBRANCH   7  10
ENDBRANCH   4   7
ENDBRANCH   1   4
BRANCH   1  13
ATOM     13  C   UNL     1       0.892   0.199   0.503  1.00  0.00     0.387 C 
ATOM     14  F   UNL     1       1.109   1.536   0.346  1.00  0.00    -0.192 F 
ATOM     15  F   UNL     1       0.348   0.055   1.745  1.00  0.00    -0.192 F 
BRANCH  13  16
ATOM     16  C   UNL     1       2.227  -0.523   0.533  1.00  0.00     0.409 C 
ATOM     17  F   UNL     1       2.982   0.027   1.544  1.00  0.00    -0.189 F 
ATOM     18  F   UNL     1       2.061  -1.830   0.898  1.00  0.00    -0.189 F 
BRANCH  16  19
ATOM     19  C   UNL     1       3.025  -0.449  -0.754  1.00  0.00     0.460 C 
ATOM     20  F   UNL     1       4.290  -0.915  -0.563  1.00  0.00    -0.165 F 
ATOM     21  F   UNL     1       3.146   0.815  -1.219  1.00  0.00    -0.165 F 
ATOM     22  F   UNL     1       2.506  -1.207  -1.745  1.00  0.00    -0.165 F 
ENDBRANCH  16  19
ENDBRANCH  13  16
ENDBRANCH   1  13
TORSDOF 6
