REMARK SMILES O=S(=O)([O-])C(F)(F)C(F)(F)C(F)(F)C(F)(F)C(F)(F)C(F)(F)C(F)(F)F
REMARK SMILES IDX 11 1 12 2 13 3 8 4 9 5 10 6 5 7 6 8 7 9 2 10 1 11 3 12 4 13
REMARK SMILES IDX 14 14 15 15 16 16 17 17 18 18 19 19 20 20 21 21 22 22 23 23
REMARK SMILES IDX 24 24 25 25 26 26
REMARK H PARENT
ROOT
ATOM      1  C   UNL     1       0.551  -1.317   0.954  1.00  0.00     0.385 C 
ATOM      2  F   UNL     1       0.055  -1.335   2.240  1.00  0.00    -0.192 F 
ATOM      3  F   UNL     1       1.092  -2.567   0.791  1.00  0.00    -0.192 F 
ENDROOT
BRANCH   1   4
ATOM      4  C   UNL     1       1.657  -0.274   0.892  1.00  0.00     0.392 C 
ATOM      5  F   UNL     1       1.123   0.914   1.289  1.00  0.00    -0.191 F 
ATOM      6  F   UNL     1       2.559  -0.613   1.860  1.00  0.00    -0.191 F 
BRANCH   4   7
ATOM      7  C   UNL     1       2.281  -0.208  -0.485  1.00  0.00     0.402 C 
ATOM      8  F   UNL     1       1.333   0.243  -1.374  1.00  0.00    -0.183 F 
ATOM      9  F   UNL     1       2.577  -1.480  -0.913  1.00  0.00    -0.183 F 
BRANCH   7  10
ATOM     10  S   UNL     1       3.745   0.863  -0.460  1.00  0.00     0.168 S 
ATOM     11  O   UNL     1       3.285   2.126   0.118  1.00  0.00    -0.236 OA
ATOM     12  O   UNL     1       4.135   0.976  -1.869  1.00  0.00    -0.236 OA
ATOM     13  O   UNL     1       4.728   0.151   0.359  1.00  0.00    -0.743 OA
ENDBRANCH   7  10
ENDBRANCH   4   7
ENDBRANCH   1   4
BRANCH   1  14
ATOM     14  C   UNL     1      -0.641  -1.198   0.012  1.00  0.00     0.385 C 
ATOM     15  F   UNL     1      -0.264  -1.420  -1.274  1.00  0.00    -0.192 F 
ATOM     16  F   UNL     1      -1.493  -2.238   0.301  1.00  0.00    -0.192 F 
BRANCH  14  17
ATOM     17  C   UNL     1      -1.416   0.103   0.131  1.00  0.00     0.387 C 
ATOM     18  F   UNL     1      -0.640   1.151  -0.236  1.00  0.00    -0.192 F 
ATOM     19  F   UNL     1      -1.754   0.321   1.431  1.00  0.00    -0.192 F 
BRANCH  17  20
ATOM     20  C   UNL     1      -2.663   0.071  -0.724  1.00  0.00     0.409 C 
ATOM     21  F   UNL     1      -2.353  -0.170  -2.029  1.00  0.00    -0.189 F 
ATOM     22  F   UNL     1      -3.484  -0.952  -0.344  1.00  0.00    -0.189 F 
BRANCH  20  23
ATOM     23  C   UNL     1      -3.405   1.387  -0.601  1.00  0.00     0.460 C 
ATOM     24  F   UNL     1      -3.793   1.645   0.671  1.00  0.00    -0.165 F 
ATOM     25  F   UNL     1      -2.676   2.444  -1.021  1.00  0.00    -0.165 F 
ATOM     26  F   UNL     1      -4.539   1.378  -1.351  1.00  0.00    -0.165 F 
ENDBRANCH  20  23
ENDBRANCH  17  20
ENDBRANCH  14  17
ENDBRANCH   1  14
TORSDOF 7
