REMARK SMILES O=S(=O)([O-])C(F)(F)C(F)(F)C(F)(F)C(F)(F)C(F)(F)C(F)(F)F
REMARK SMILES IDX 11 1 12 2 13 3 8 4 9 5 10 6 5 7 6 8 7 9 2 10 1 11 3 12 4 13
REMARK SMILES IDX 14 14 15 15 16 16 17 17 18 18 19 19 20 20 21 21 22 22 23 23
REMARK H PARENT
ROOT
ATOM      1  C   UNL     1      -0.069  -0.998  -0.610  1.00  0.00     0.386 C 
ATOM      2  F   UNL     1       0.221  -2.289  -0.258  1.00  0.00    -0.192 F 
ATOM      3  F   UNL     1      -0.150  -1.012  -1.973  1.00  0.00    -0.192 F 
ENDROOT
BRANCH   1   4
ATOM      4  C   UNL     1       1.027  -0.058  -0.150  1.00  0.00     0.392 C 
ATOM      5  F   UNL     1       0.915   0.077   1.199  1.00  0.00    -0.191 F 
ATOM      6  F   UNL     1       0.764   1.163  -0.687  1.00  0.00    -0.191 F 
BRANCH   4   7
ATOM      7  C   UNL     1       2.373  -0.606  -0.578  1.00  0.00     0.402 C 
ATOM      8  F   UNL     1       2.577  -1.833   0.009  1.00  0.00    -0.183 F 
ATOM      9  F   UNL     1       2.353  -0.863  -1.930  1.00  0.00    -0.183 F 
BRANCH   7  10
ATOM     10  S   UNL     1       3.678   0.580  -0.137  1.00  0.00     0.168 S 
ATOM     11  O   UNL     1       4.928  -0.092  -0.507  1.00  0.00    -0.236 OA
ATOM     12  O   UNL     1       3.537   0.791   1.305  1.00  0.00    -0.236 OA
ATOM     13  O   UNL     1       3.401   1.772  -0.942  1.00  0.00    -0.743 OA
ENDBRANCH   7  10
ENDBRANCH   4   7
ENDBRANCH   1   4
BRANCH   1  14
ATOM     14  C   UNL     1      -1.447  -0.685  -0.041  1.00  0.00     0.387 C 
ATOM     15  F   UNL     1      -1.461  -0.892   1.307  1.00  0.00    -0.192 F 
ATOM     16  F   UNL     1      -2.316  -1.623  -0.543  1.00  0.00    -0.192 F 
BRANCH  14  17
ATOM     17  C   UNL     1      -1.979   0.693  -0.353  1.00  0.00     0.409 C 
ATOM     18  F   UNL     1      -1.858   0.965  -1.682  1.00  0.00    -0.189 F 
ATOM     19  F   UNL     1      -1.269   1.649   0.303  1.00  0.00    -0.189 F 
BRANCH  17  20
ATOM     20  C   UNL     1      -3.436   0.783   0.062  1.00  0.00     0.460 C 
ATOM     21  F   UNL     1      -3.940   2.022  -0.175  1.00  0.00    -0.165 F 
ATOM     22  F   UNL     1      -4.228  -0.082  -0.616  1.00  0.00    -0.165 F 
ATOM     23  F   UNL     1      -3.620   0.538   1.381  1.00  0.00    -0.165 F 
ENDBRANCH  17  20
ENDBRANCH  14  17
ENDBRANCH   1  14
TORSDOF 6
