REMARK SMILES O=C([O-])C(F)(F)C(F)(F)C(F)(F)C(F)(F)C(F)(F)C(F)(F)C(F)(F)C(F)(F)F
REMARK SMILES IDX 13 1 14 2 15 3 10 4 11 5 12 6 7 7 8 8 9 9 4 10 5 11 6 12
REMARK SMILES IDX 2 13 1 14 3 15 16 16 17 17 18 18 19 19 20 20 21 21 22 22
REMARK SMILES IDX 23 23 24 24 25 25 26 26 27 27 28 28
REMARK H PARENT
ROOT
ATOM      1  C   UNL     1       0.043   0.400  -0.695  1.00  0.00     0.385 C 
ATOM      2  F   UNL     1      -0.107   1.303  -1.716  1.00  0.00    -0.192 F 
ATOM      3  F   UNL     1      -0.459  -0.766  -1.195  1.00  0.00    -0.192 F 
ENDROOT
BRANCH   1   4
ATOM      4  C   UNL     1       1.531   0.255  -0.403  1.00  0.00     0.385 C 
ATOM      5  F   UNL     1       2.127  -0.131  -1.576  1.00  0.00    -0.192 F 
ATOM      6  F   UNL     1       2.039   1.483  -0.131  1.00  0.00    -0.192 F 
BRANCH   4   7
ATOM      7  C   UNL     1       1.832  -0.762   0.686  1.00  0.00     0.384 C 
ATOM      8  F   UNL     1       1.309  -0.361   1.875  1.00  0.00    -0.192 F 
ATOM      9  F   UNL     1       1.130  -1.911   0.388  1.00  0.00    -0.192 F 
BRANCH   7  10
ATOM     10  C   UNL     1       3.292  -1.126   0.794  1.00  0.00     0.355 C 
ATOM     11  F   UNL     1       3.711  -1.731  -0.361  1.00  0.00    -0.193 F 
ATOM     12  F   UNL     1       3.474  -2.059   1.781  1.00  0.00    -0.193 F 
BRANCH  10  13
ATOM     13  C   UNL     1       4.155   0.109   1.105  1.00  0.00     0.118 C 
ATOM     14  O   UNL     1       3.689   0.900   1.979  1.00  0.00    -0.544 OA
ATOM     15  O   UNL     1       5.234   0.232   0.454  1.00  0.00    -0.544 OA
ENDBRANCH  10  13
ENDBRANCH   7  10
ENDBRANCH   4   7
ENDBRANCH   1   4
BRANCH   1  16
ATOM     16  C   UNL     1      -0.823   0.842   0.469  1.00  0.00     0.385 C 
ATOM     17  F   UNL     1      -0.953  -0.149   1.388  1.00  0.00    -0.192 F 
ATOM     18  F   UNL     1      -0.227   1.879   1.124  1.00  0.00    -0.192 F 
BRANCH  16  19
ATOM     19  C   UNL     1      -2.217   1.295   0.051  1.00  0.00     0.387 C 
ATOM     20  F   UNL     1      -2.107   2.434  -0.704  1.00  0.00    -0.192 F 
ATOM     21  F   UNL     1      -2.892   1.699   1.176  1.00  0.00    -0.192 F 
BRANCH  19  22
ATOM     22  C   UNL     1      -3.096   0.314  -0.698  1.00  0.00     0.409 C 
ATOM     23  F   UNL     1      -2.569   0.025  -1.920  1.00  0.00    -0.189 F 
ATOM     24  F   UNL     1      -4.292   0.934  -0.975  1.00  0.00    -0.189 F 
BRANCH  22  25
ATOM     25  C   UNL     1      -3.378  -0.956   0.083  1.00  0.00     0.460 C 
ATOM     26  F   UNL     1      -3.905  -0.702   1.302  1.00  0.00    -0.165 F 
ATOM     27  F   UNL     1      -2.272  -1.706   0.269  1.00  0.00    -0.165 F 
ATOM     28  F   UNL     1      -4.270  -1.744  -0.572  1.00  0.00    -0.165 F 
ENDBRANCH  22  25
ENDBRANCH  19  22
ENDBRANCH  16  19
ENDBRANCH   1  16
TORSDOF 8
