REMARK SMILES O=S(=O)([O-])C(F)(F)C(F)(F)C(F)(F)C(F)(F)C(F)(F)C(F)(F)C(F)(F)C(F)(F)F
REMARK SMILES IDX 14 1 15 2 16 3 11 4 12 5 13 6 8 7 9 8 10 9 5 10 6 11 7 12
REMARK SMILES IDX 2 13 1 14 3 15 4 16 17 17 18 18 19 19 20 20 21 21 22 22
REMARK SMILES IDX 23 23 24 24 25 25 26 26 27 27 28 28 29 29
REMARK H PARENT
ROOT
ATOM      1  C   UNL     1      -0.254   0.706  -0.751  1.00  0.00     0.385 C 
ATOM      2  F   UNL     1      -0.667   1.439   0.318  1.00  0.00    -0.192 F 
ATOM      3  F   UNL     1       0.240   1.614  -1.645  1.00  0.00    -0.192 F 
ENDROOT
BRANCH   1   4
ATOM      4  C   UNL     1       0.832  -0.280  -0.348  1.00  0.00     0.385 C 
ATOM      5  F   UNL     1       0.327  -1.096   0.616  1.00  0.00    -0.192 F 
ATOM      6  F   UNL     1       1.115  -1.086  -1.406  1.00  0.00    -0.192 F 
BRANCH   4   7
ATOM      7  C   UNL     1       2.076   0.436   0.150  1.00  0.00     0.392 C 
ATOM      8  F   UNL     1       2.524   1.243  -0.850  1.00  0.00    -0.191 F 
ATOM      9  F   UNL     1       1.697   1.256   1.169  1.00  0.00    -0.191 F 
BRANCH   7  10
ATOM     10  C   UNL     1       3.101  -0.594   0.575  1.00  0.00     0.402 C 
ATOM     11  F   UNL     1       3.369  -1.434  -0.482  1.00  0.00    -0.183 F 
ATOM     12  F   UNL     1       2.554  -1.412   1.538  1.00  0.00    -0.183 F 
BRANCH  10  13
ATOM     13  S   UNL     1       4.600   0.241   1.172  1.00  0.00     0.168 S 
ATOM     14  O   UNL     1       5.090   1.017   0.031  1.00  0.00    -0.236 OA
ATOM     15  O   UNL     1       4.160   1.060   2.304  1.00  0.00    -0.236 OA
ATOM     16  O   UNL     1       5.498  -0.851   1.561  1.00  0.00    -0.743 OA
ENDBRANCH  10  13
ENDBRANCH   7  10
ENDBRANCH   4   7
ENDBRANCH   1   4
BRANCH   1  17
ATOM     17  C   UNL     1      -1.474   0.056  -1.393  1.00  0.00     0.385 C 
ATOM     18  F   UNL     1      -2.336   1.042  -1.796  1.00  0.00    -0.192 F 
ATOM     19  F   UNL     1      -1.094  -0.550  -2.562  1.00  0.00    -0.192 F 
BRANCH  17  20
ATOM     20  C   UNL     1      -2.272  -0.948  -0.574  1.00  0.00     0.387 C 
ATOM     21  F   UNL     1      -1.516  -2.072  -0.390  1.00  0.00    -0.192 F 
ATOM     22  F   UNL     1      -3.324  -1.380  -1.344  1.00  0.00    -0.192 F 
BRANCH  20  23
ATOM     23  C   UNL     1      -2.821  -0.494   0.764  1.00  0.00     0.409 C 
ATOM     24  F   UNL     1      -3.470  -1.555   1.346  1.00  0.00    -0.189 F 
ATOM     25  F   UNL     1      -1.807  -0.189   1.617  1.00  0.00    -0.189 F 
BRANCH  23  26
ATOM     26  C   UNL     1      -3.792   0.668   0.648  1.00  0.00     0.460 C 
ATOM     27  F   UNL     1      -4.357   0.959   1.847  1.00  0.00    -0.165 F 
ATOM     28  F   UNL     1      -4.806   0.406  -0.207  1.00  0.00    -0.165 F 
ATOM     29  F   UNL     1      -3.192   1.800   0.224  1.00  0.00    -0.165 F 
ENDBRANCH  23  26
ENDBRANCH  20  23
ENDBRANCH  17  20
ENDBRANCH   1  17
TORSDOF 8
