REMARK SMILES O=C([O-])C(F)(F)C(F)(F)C(F)(F)C(F)(F)F
REMARK SMILES IDX 7 1 8 2 9 3 4 4 5 5 6 6 2 7 1 8 3 9 10 10 11 11 12 12 13 13
REMARK SMILES IDX 14 14 15 15 16 16
REMARK H PARENT
ROOT
ATOM      1  C   UNL     1       0.411   0.565   0.387  1.00  0.00     0.386 C 
ATOM      2  F   UNL     1       1.176   1.689   0.225  1.00  0.00    -0.192 F 
ATOM      3  F   UNL     1       0.403   0.321   1.730  1.00  0.00    -0.192 F 
ENDROOT
BRANCH   1   4
ATOM      4  C   UNL     1       0.964  -0.600  -0.388  1.00  0.00     0.355 C 
ATOM      5  F   UNL     1       0.332  -1.759  -0.043  1.00  0.00    -0.193 F 
ATOM      6  F   UNL     1       0.755  -0.440  -1.727  1.00  0.00    -0.193 F 
BRANCH   4   7
ATOM      7  C   UNL     1       2.463  -0.700  -0.073  1.00  0.00     0.118 C 
ATOM      8  O   UNL     1       2.765  -1.234   1.037  1.00  0.00    -0.544 OA
ATOM      9  O   UNL     1       3.257  -0.245  -0.951  1.00  0.00    -0.544 OA
ENDBRANCH   4   7
ENDBRANCH   1   4
BRANCH   1  10
ATOM     10  C   UNL     1      -0.997   0.925  -0.037  1.00  0.00     0.409 C 
ATOM     11  F   UNL     1      -1.025   1.400  -1.320  1.00  0.00    -0.189 F 
ATOM     12  F   UNL     1      -1.423   1.988   0.730  1.00  0.00    -0.189 F 
BRANCH  10  13
ATOM     13  C   UNL     1      -1.996  -0.206   0.113  1.00  0.00     0.460 C 
ATOM     14  F   UNL     1      -3.263   0.249  -0.112  1.00  0.00    -0.165 F 
ATOM     15  F   UNL     1      -1.816  -1.211  -0.772  1.00  0.00    -0.165 F 
ATOM     16  F   UNL     1      -2.006  -0.743   1.354  1.00  0.00    -0.165 F 
ENDBRANCH  10  13
ENDBRANCH   1  10
TORSDOF 4
