REMARK SMILES O=S(=O)([O-])C(F)(F)C(F)(F)C(F)(F)C(F)(F)C(F)(F)F
REMARK SMILES IDX 8 1 9 2 10 3 5 4 6 5 7 6 2 7 1 8 3 9 4 10 11 11 12 12 13 13
REMARK SMILES IDX 14 14 15 15 16 16 17 17 18 18 19 19 20 20
REMARK H PARENT
ROOT
ATOM      1  C   UNL     1       0.583  -0.369   0.429  1.00  0.00     0.392 C 
ATOM      2  F   UNL     1       0.374  -1.550   1.119  1.00  0.00    -0.191 F 
ATOM      3  F   UNL     1       0.503   0.582   1.399  1.00  0.00    -0.191 F 
ENDROOT
BRANCH   1   4
ATOM      4  C   UNL     1       1.968  -0.452  -0.177  1.00  0.00     0.402 C 
ATOM      5  F   UNL     1       2.867  -0.653   0.852  1.00  0.00    -0.183 F 
ATOM      6  F   UNL     1       2.057  -1.603  -0.930  1.00  0.00    -0.183 F 
BRANCH   4   7
ATOM      7  S   UNL     1       2.350   1.035  -1.141  1.00  0.00     0.168 S 
ATOM      8  O   UNL     1       1.659   0.833  -2.415  1.00  0.00    -0.236 OA
ATOM      9  O   UNL     1       3.809   1.046  -1.262  1.00  0.00    -0.236 OA
ATOM     10  O   UNL     1       1.816   2.143  -0.348  1.00  0.00    -0.743 OA
ENDBRANCH   4   7
ENDBRANCH   1   4
BRANCH   1  11
ATOM     11  C   UNL     1      -0.562  -0.215  -0.552  1.00  0.00     0.388 C 
ATOM     12  F   UNL     1      -0.381  -1.065  -1.609  1.00  0.00    -0.192 F 
ATOM     13  F   UNL     1      -0.634   1.035  -1.069  1.00  0.00    -0.192 F 
BRANCH  11  14
ATOM     14  C   UNL     1      -1.914  -0.549   0.051  1.00  0.00     0.409 C 
ATOM     15  F   UNL     1      -1.977  -1.872   0.398  1.00  0.00    -0.189 F 
ATOM     16  F   UNL     1      -2.875  -0.406  -0.923  1.00  0.00    -0.189 F 
BRANCH  14  17
ATOM     17  C   UNL     1      -2.296   0.310   1.241  1.00  0.00     0.460 C 
ATOM     18  F   UNL     1      -1.543   0.058   2.335  1.00  0.00    -0.165 F 
ATOM     19  F   UNL     1      -2.225   1.633   0.984  1.00  0.00    -0.165 F 
ATOM     20  F   UNL     1      -3.581   0.059   1.618  1.00  0.00    -0.165 F 
ENDBRANCH  14  17
ENDBRANCH  11  14
ENDBRANCH   1  11
TORSDOF 5
