REMARK SMILES O=C([O-])C(F)(F)C(F)(F)C(F)(F)C(F)(F)C(F)(F)C(F)(F)C(F)(F)C(F)(F)C(F)(F)C(F)(F)F
REMARK SMILES IDX 16 1 17 2 18 3 13 4 14 5 15 6 10 7 11 8 12 9 7 10 8 11 9 12
REMARK SMILES IDX 4 13 5 14 6 15 2 16 1 17 3 18 19 19 20 20 21 21 22 22 23 23
REMARK SMILES IDX 24 24 25 25 26 26 27 27 28 28 29 29 30 30 31 31 32 32 33 33
REMARK SMILES IDX 34 34
REMARK H PARENT
ROOT
ATOM      1  C   UNL     1       0.187   0.015  -0.136  1.00  0.00     0.385 C 
ATOM      2  F   UNL     1      -0.676  -1.055  -0.160  1.00  0.00    -0.192 F 
ATOM      3  F   UNL     1       0.534   0.106   1.162  1.00  0.00    -0.192 F 
ENDROOT
BRANCH   1   4
ATOM      4  C   UNL     1       1.332  -0.294  -1.096  1.00  0.00     0.385 C 
ATOM      5  F   UNL     1       2.070   0.772  -1.480  1.00  0.00    -0.192 F 
ATOM      6  F   UNL     1       0.727  -0.686  -2.283  1.00  0.00    -0.192 F 
BRANCH   4   7
ATOM      7  C   UNL     1       2.219  -1.448  -0.662  1.00  0.00     0.385 C 
ATOM      8  F   UNL     1       3.003  -1.790  -1.744  1.00  0.00    -0.192 F 
ATOM      9  F   UNL     1       1.395  -2.546  -0.501  1.00  0.00    -0.192 F 
BRANCH   7  10
ATOM     10  C   UNL     1       3.123  -1.377   0.566  1.00  0.00     0.384 C 
ATOM     11  F   UNL     1       2.393  -1.271   1.710  1.00  0.00    -0.192 F 
ATOM     12  F   UNL     1       3.687  -2.645   0.675  1.00  0.00    -0.192 F 
BRANCH  10  13
ATOM     13  C   UNL     1       4.282  -0.406   0.520  1.00  0.00     0.355 C 
ATOM     14  F   UNL     1       4.999  -0.577  -0.632  1.00  0.00    -0.193 F 
ATOM     15  F   UNL     1       5.150  -0.690   1.545  1.00  0.00    -0.193 F 
BRANCH  13  16
ATOM     16  C   UNL     1       3.871   1.065   0.652  1.00  0.00     0.118 C 
ATOM     17  O   UNL     1       2.626   1.262   0.797  1.00  0.00    -0.544 OA
ATOM     18  O   UNL     1       4.785   1.935   0.585  1.00  0.00    -0.544 OA
ENDBRANCH  13  16
ENDBRANCH  10  13
ENDBRANCH   7  10
ENDBRANCH   4   7
ENDBRANCH   1   4
BRANCH   1  19
ATOM     19  C   UNL     1      -0.588   1.246  -0.574  1.00  0.00     0.385 C 
ATOM     20  F   UNL     1       0.235   2.319  -0.744  1.00  0.00    -0.192 F 
ATOM     21  F   UNL     1      -1.141   1.041  -1.805  1.00  0.00    -0.192 F 
BRANCH  19  22
ATOM     22  C   UNL     1      -1.688   1.653   0.399  1.00  0.00     0.385 C 
ATOM     23  F   UNL     1      -1.129   2.073   1.575  1.00  0.00    -0.192 F 
ATOM     24  F   UNL     1      -2.309   2.773  -0.103  1.00  0.00    -0.192 F 
BRANCH  22  25
ATOM     25  C   UNL     1      -2.774   0.640   0.738  1.00  0.00     0.387 C 
ATOM     26  F   UNL     1      -3.639   1.240   1.619  1.00  0.00    -0.192 F 
ATOM     27  F   UNL     1      -2.257  -0.409   1.428  1.00  0.00    -0.192 F 
BRANCH  25  28
ATOM     28  C   UNL     1      -3.565   0.155  -0.455  1.00  0.00     0.409 C 
ATOM     29  F   UNL     1      -2.774  -0.548  -1.309  1.00  0.00    -0.189 F 
ATOM     30  F   UNL     1      -4.044   1.210  -1.174  1.00  0.00    -0.189 F 
BRANCH  28  31
ATOM     31  C   UNL     1      -4.715  -0.719   0.011  1.00  0.00     0.460 C 
ATOM     32  F   UNL     1      -5.432  -1.185  -1.046  1.00  0.00    -0.165 F 
ATOM     33  F   UNL     1      -4.298  -1.805   0.701  1.00  0.00    -0.165 F 
ATOM     34  F   UNL     1      -5.591  -0.055   0.800  1.00  0.00    -0.165 F 
ENDBRANCH  28  31
ENDBRANCH  25  28
ENDBRANCH  22  25
ENDBRANCH  19  22
ENDBRANCH   1  19
TORSDOF 10
