REMARK  Name = 3B2H_protA.pdb
REMARK                            x       y       z     vdW  Elec       q    Type
REMARK                         _______ _______ _______ _____ _____    ______ ____
ATOM      1  N   GLY A   1      -6.568  -3.038  -4.637  0.00  0.00    +0.000 N 
ATOM      2  CA  GLY A   1      -7.627  -2.774  -3.668  0.00  0.00    +0.000 C 
ATOM      3  C   GLY A   1      -7.062  -2.762  -2.258  0.00  0.00    +0.000 C 
ATOM      4  O   GLY A   1      -6.333  -3.613  -1.934  0.00  0.00    +0.000 OA
ATOM      5  N   SER A   2      -7.376  -1.742  -1.462  0.00  0.00    +0.000 N 
ATOM      6  CA  SER A   2      -6.646  -1.500  -0.217  0.00  0.00    +0.000 C 
ATOM      7  C   SER A   2      -7.540  -0.948   0.891  0.00  0.00    +0.000 C 
ATOM      8  O   SER A   2      -7.094  -0.130   1.703  0.00  0.00    +0.000 OA
ATOM      9  CB  SER A   2      -5.489  -0.530  -0.474  0.00  0.00    +0.000 C 
ATOM     10  OG  SER A   2      -5.973   0.739  -0.891  0.00  0.00    +0.000 OA
ATOM     11  N   GLY A   3      -8.785  -1.424   0.942  0.00  0.00    +0.000 N 
ATOM     12  CA  GLY A   3      -9.776  -0.888   1.872  0.00  0.00    +0.000 C 
ATOM     13  C   GLY A   3      -9.257  -0.796   3.305  0.00  0.00    +0.000 C 
ATOM     14  O   GLY A   3      -9.434   0.224   3.963  0.00  0.00    +0.000 OA
ATOM     15  N   PHE A   4      -8.604  -1.857   3.773  0.00  0.00    +0.000 N 
ATOM     16  CA  PHE A   4      -8.151  -1.929   5.162  0.00  0.00    +0.000 C 
ATOM     17  C   PHE A   4      -6.842  -1.208   5.476  0.00  0.00    +0.000 C 
ATOM     18  O   PHE A   4      -6.527  -1.005   6.648  0.00  0.00    +0.000 OA
ATOM     19  CB  PHE A   4      -8.015  -3.390   5.602  0.00  0.00    +0.000 C 
ATOM     20  CG  PHE A   4      -9.293  -4.004   6.086  0.00  0.00    +0.000 A 
ATOM     21  CD2 PHE A   4      -9.648  -3.928   7.430  0.00  0.00    +0.000 A 
ATOM     22  CD1 PHE A   4     -10.133  -4.675   5.204  0.00  0.00    +0.000 A 
ATOM     23  CE2 PHE A   4     -10.829  -4.500   7.890  0.00  0.00    +0.000 A 
ATOM     24  CE1 PHE A   4     -11.315  -5.253   5.649  0.00  0.00    +0.000 A 
ATOM     25  CZ  PHE A   4     -11.662  -5.169   7.000  0.00  0.00    +0.000 A 
ATOM     26  N   SER A   5      -6.076  -0.835   4.452  0.00  0.00    +0.000 N 
ATOM     27  CA  SER A   5      -4.729  -0.298   4.686  0.00  0.00    +0.000 C 
ATOM     28  C   SER A   5      -4.705   0.899   5.621  0.00  0.00    +0.000 C 
ATOM     29  O   SER A   5      -5.538   1.797   5.518  0.00  0.00    +0.000 OA
ATOM     30  CB  SER A   5      -4.043   0.068   3.375  0.00  0.00    +0.000 C 
ATOM     31  OG  SER A   5      -3.692  -1.098   2.662  0.00  0.00    +0.000 OA
ATOM     32  N   GLY A   6      -3.734   0.898   6.527  0.00  0.00    +0.000 N 
ATOM     33  CA  GLY A   6      -3.536   2.023   7.431  0.00  0.00    +0.000 C 
ATOM     34  C   GLY A   6      -2.993   1.635   8.786  0.00  0.00    +0.000 C 
ATOM     35  O   GLY A   6      -2.726   0.463   9.055  0.00  0.00    +0.000 OA
ATOM     36  N   LYS A   7      -2.844   2.640   9.639  0.00  0.00    +0.000 N 
ATOM     37  CA  LYS A   7      -2.357   2.456  10.998  0.00  0.00    +0.000 C 
ATOM     38  C   LYS A   7      -3.462   2.895  11.952  0.00  0.00    +0.000 C 
ATOM     39  O   LYS A   7      -4.033   3.976  11.790  0.00  0.00    +0.000 OA
ATOM     40  CB  LYS A   7      -1.099   3.295  11.211  0.00  0.00    +0.000 C 
ATOM     41  CG  LYS A   7      -0.370   3.036  12.504  0.00  0.00    +0.000 C 
ATOM     42  CD  LYS A   7       0.857   3.929  12.629  0.00  0.00    +0.000 C 
ATOM     43  CE  LYS A   7       2.034   3.370  11.851  0.00  0.00    +0.000 C 
ATOM     44  NZ  LYS A   7       3.326   3.954  12.312  0.00  0.00    +0.000 N 
ATOM     45  N   TYR A   8      -3.762   2.041  12.926  0.00  0.00    +0.000 N 
ATOM     46  CA  TYR A   8      -4.878   2.261  13.842  0.00  0.00    +0.000 C 
ATOM     47  C   TYR A   8      -4.414   2.015  15.263  0.00  0.00    +0.000 C 
ATOM     48  O   TYR A   8      -3.612   1.113  15.513  0.00  0.00    +0.000 OA
ATOM     49  CB  TYR A   8      -6.030   1.302  13.529  0.00  0.00    +0.000 C 
ATOM     50  CG  TYR A   8      -6.440   1.257  12.070  0.00  0.00    +0.000 A 
ATOM     51  CD1 TYR A   8      -5.745   0.462  11.154  0.00  0.00    +0.000 A 
ATOM     52  CD2 TYR A   8      -7.538   1.989  11.608  0.00  0.00    +0.000 A 
ATOM     53  CE1 TYR A   8      -6.117   0.412   9.813  0.00  0.00    +0.000 A 
ATOM     54  CE2 TYR A   8      -7.919   1.941  10.267  0.00  0.00    +0.000 A 
ATOM     55  CZ  TYR A   8      -7.205   1.151   9.378  0.00  0.00    +0.000 A 
ATOM     56  OH  TYR A   8      -7.580   1.101   8.053  0.00  0.00    +0.000 OA
ATOM     57  N   GLN A   9      -4.922   2.808  16.197  0.00  0.00    +0.000 N 
ATOM     58  CA  GLN A   9      -4.591   2.606  17.598  0.00  0.00    +0.000 C 
ATOM     59  C   GLN A   9      -5.836   2.334  18.422  0.00  0.00    +0.000 C 
ATOM     60  O   GLN A   9      -6.871   2.973  18.228  0.00  0.00    +0.000 OA
ATOM     61  CB  GLN A   9      -3.830   3.802  18.165  0.00  0.00    +0.000 C 
ATOM     62  CG  GLN A   9      -3.381   3.589  19.603  0.00  0.00    +0.000 C 
ATOM     63  CD  GLN A   9      -2.397   4.638  20.085  0.00  0.00    +0.000 C 
ATOM     64  OE1 GLN A   9      -2.495   5.818  19.729  0.00  0.00    +0.000 OA
ATOM     65  NE2 GLN A   9      -1.450   4.214  20.908  0.00  0.00    +0.000 N 
ATOM     66  N   LEU A  10      -5.715   1.386  19.346  0.00  0.00    +0.000 N 
ATOM     67  CA  LEU A  10      -6.793   1.062  20.272  0.00  0.00    +0.000 C 
ATOM     68  C   LEU A  10      -7.260   2.298  21.026  0.00  0.00    +0.000 C 
ATOM     69  O   LEU A  10      -6.448   3.089  21.513  0.00  0.00    +0.000 OA
ATOM     70  CB  LEU A  10      -6.338  -0.012  21.261  0.00  0.00    +0.000 C 
ATOM     71  CG  LEU A  10      -7.440  -0.604  22.146  0.00  0.00    +0.000 C 
ATOM     72  CD1 LEU A  10      -8.321  -1.557  21.337  0.00  0.00    +0.000 C 
ATOM     73  CD2 LEU A  10      -6.836  -1.313  23.338  0.00  0.00    +0.000 C 
ATOM     74  N   GLN A  11      -8.578   2.453  21.101  0.00  0.00    +0.000 N 
ATOM     75  CA  GLN A  11      -9.201   3.502  21.892  0.00  0.00    +0.000 C 
ATOM     76  C   GLN A  11      -9.754   2.918  23.181  0.00  0.00    +0.000 C 
ATOM     77  O   GLN A  11      -9.582   3.493  24.258  0.00  0.00    +0.000 OA
ATOM     78  CB  GLN A  11     -10.316   4.174  21.094  0.00  0.00    +0.000 C 
ATOM     79  CG  GLN A  11      -9.831   4.798  19.799  0.00  0.00    +0.000 C 
ATOM     80  CD  GLN A  11      -8.737   5.828  20.023  0.00  0.00    +0.000 C 
ATOM     81  OE1 GLN A  11      -8.985   6.907  20.567  0.00  0.00    +0.000 OA
ATOM     82  NE2 GLN A  11      -7.515   5.497  19.608  0.00  0.00    +0.000 N 
ATOM     83  N   UNK A  12     -10.413   1.770  23.054  0.00  0.00    +0.000 N 
ATOM     84  C   UNK A  12     -11.033   1.088  24.188  0.00  0.00    +0.000 C 
ATOM     85  C   UNK A  12     -11.279  -0.380  23.857  0.00  0.00    +0.000 C 
ATOM     86  O   UNK A  12     -11.320  -0.765  22.683  0.00  0.00    +0.000 OA
ATOM     87  C   UNK A  12     -12.356   1.761  24.554  0.00  0.00    +0.000 C 
ATOM     88  O   UNK A  12     -13.272   1.677  23.480  0.00  0.00    +0.000 OA
ATOM     89  N   UNK A  12     -11.447  -1.190  24.899  0.00  0.00    +0.000 N 
ATOM     90  C   UNK A  12     -11.734  -2.619  24.742  0.00  0.00    +0.000 C 
ATOM     91  C   UNK A  12     -12.520  -3.193  25.916  0.00  0.00    +0.000 C 
ATOM     92  O   UNK A  12     -12.415  -2.706  27.047  0.00  0.00    +0.000 OA
ATOM     93  C   UNK A  12     -10.447  -3.419  24.522  0.00  0.00    +0.000 C 
ATOM     94  C   UNK A  12      -9.423  -3.346  25.664  0.00  0.00    +0.000 C 
ATOM     95  C   UNK A  12      -8.123  -4.048  25.327  0.00  0.00    +0.000 C 
ATOM     96  O   UNK A  12      -8.039  -4.790  24.350  0.00  0.00    +0.000 OA
ATOM     97  N   UNK A  12      -7.090  -3.799  26.128  0.00  0.00    +0.000 N 
ATOM     98  N   UNK A  12     -13.303  -4.230  25.628  0.00  0.00    +0.000 N 
ATOM     99  C   UNK A  12     -14.141  -4.903  26.621  0.00  0.00    +0.000 C 
ATOM    100  C   UNK A  12     -13.712  -6.353  26.781  0.00  0.00    +0.000 C 
ATOM    101  O   UNK A  12     -13.486  -7.046  25.790  0.00  0.00    +0.000 OA
ATOM    102  C   UNK A  12     -15.605  -4.898  26.187  0.00  0.00    +0.000 C 
ATOM    103  C   UNK A  12     -16.323  -3.564  26.276  0.00  0.00    +0.000 C 
ATOM    104  C   UNK A  12     -17.725  -3.621  25.681  0.00  0.00    +0.000 C 
ATOM    105  O   UNK A  12     -18.210  -4.738  25.379  0.00  0.00    +0.000 OA
ATOM    106  O   UNK A  12     -18.342  -2.547  25.514  0.00  0.00    +0.000 OA
ATOM    107  N   UNK A  12     -13.621  -6.799  28.035  0.00  0.00    +0.000 N 
ATOM    108  C   UNK A  12     -13.378  -8.203  28.395  0.00  0.00    +0.000 C 
ATOM    109  C   UNK A  12     -11.993  -8.757  28.048  0.00  0.00    +0.000 C 
ATOM    110  O   UNK A  12     -11.831  -9.963  27.835  0.00  0.00    +0.000 OA
ATOM    111  C   UNK A  12     -14.499  -9.110  27.857  0.00  0.00    +0.000 C 
ATOM    112  C   UNK A  12     -15.875  -8.659  28.305  0.00  0.00    +0.000 C 
ATOM    113  O   UNK A  12     -16.082  -8.321  29.474  0.00  0.00    +0.000 OA
ATOM    114  N   UNK A  12     -16.826  -8.651  27.376  0.00  0.00    +0.000 N 
ATOM    115  N   UNK A  12     -10.997  -7.872  28.030  0.00  0.00    +0.000 N 
ATOM    116  C   UNK A  12      -9.608  -8.243  27.753  0.00  0.00    +0.000 C 
ATOM    117  C   UNK A  12      -9.070  -9.327  28.693  0.00  0.00    +0.000 C 
ATOM    118  O   UNK A  12      -8.538 -10.340  28.236  0.00  0.00    +0.000 OA
ATOM    119  C   UNK A  12      -8.705  -7.001  27.808  0.00  0.00    +0.000 C 
ATOM    120  C   UNK A  12      -7.242  -7.299  27.610  0.00  0.00    +0.000 A 
ATOM    121  C   UNK A  12      -6.687  -7.317  26.335  0.00  0.00    +0.000 A 
ATOM    122  C   UNK A  12      -6.417  -7.565  28.700  0.00  0.00    +0.000 A 
ATOM    123  C   UNK A  12      -5.338  -7.593  26.149  0.00  0.00    +0.000 A 
ATOM    124  C   UNK A  12      -5.068  -7.846  28.522  0.00  0.00    +0.000 A 
ATOM    125  C   UNK A  12      -4.527  -7.858  27.246  0.00  0.00    +0.000 A 
ATOM    126  N   UNK A  12      -9.201  -9.096  29.998  0.00  0.00    +0.000 N 
ATOM    127  C   UNK A  12      -8.648  -9.998  31.016  0.00  0.00    +0.000 C 
ATOM    128  C   UNK A  12      -9.282 -11.385  30.979  0.00  0.00    +0.000 C 
ATOM    129  O   UNK A  12      -8.574 -12.396  30.987  0.00  0.00    +0.000 OA
ATOM    130  C   UNK A  12      -8.807  -9.394  32.410  0.00  0.00    +0.000 C 
ATOM    131  C   UNK A  12      -7.902  -8.213  32.691  0.00  0.00    +0.000 C 
ATOM    132  C   UNK A  12      -8.398  -7.385  33.855  0.00  0.00    +0.000 C 
ATOM    133  O   UNK A  12      -9.415  -6.678  33.687  0.00  0.00    +0.000 OA
ATOM    134  O   UNK A  12      -7.775  -7.447  34.937  0.00  0.00    +0.000 OA
ATOM    135  N   UNK A  12     -10.613 -11.422  30.944  0.00  0.00    +0.000 N 
ATOM    136  C   UNK A  12     -11.359 -12.677  30.851  0.00  0.00    +0.000 C 
ATOM    137  C   UNK A  12     -10.975 -13.481  29.609  0.00  0.00    +0.000 C 
ATOM    138  O   UNK A  12     -10.776 -14.692  29.691  0.00  0.00    +0.000 OA
ATOM    139  C   UNK A  12     -12.861 -12.417  30.886  0.00  0.00    +0.000 C 
ATOM    140  N   UNK A  12     -10.857 -12.802  28.468  0.00  0.00    +0.000 N 
ATOM    141  C   UNK A  12     -10.475 -13.458  27.220  0.00  0.00    +0.000 C 
ATOM    142  C   UNK A  12      -9.044 -13.994  27.263  0.00  0.00    +0.000 C 
ATOM    143  O   UNK A  12      -8.799 -15.141  26.891  0.00  0.00    +0.000 OA
ATOM    144  C   UNK A  12     -10.647 -12.513  26.022  0.00  0.00    +0.000 C 
ATOM    145  C   UNK A  12     -10.365 -13.160  24.690  0.00  0.00    +0.000 A 
ATOM    146  C   UNK A  12     -11.371 -13.837  24.005  0.00  0.00    +0.000 A 
ATOM    147  C   UNK A  12      -9.096 -13.089  24.118  0.00  0.00    +0.000 A 
ATOM    148  C   UNK A  12     -11.116 -14.438  22.776  0.00  0.00    +0.000 A 
ATOM    149  C   UNK A  12      -8.828 -13.686  22.892  0.00  0.00    +0.000 A 
ATOM    150  C   UNK A  12      -9.842 -14.362  22.216  0.00  0.00    +0.000 A 
ATOM    151  N   UNK A  12      -8.105 -13.164  27.713  0.00  0.00    +0.000 N 
ATOM    152  C   UNK A  12      -6.689 -13.541  27.697  0.00  0.00    +0.000 C 
ATOM    153  C   UNK A  12      -6.367 -14.651  28.696  0.00  0.00    +0.000 C 
ATOM    154  O   UNK A  12      -5.503 -15.492  28.436  0.00  0.00    +0.000 OA
ATOM    155  C   UNK A  12      -5.786 -12.319  27.900  0.00  0.00    +0.000 C 
ATOM    156  C   UNK A  12      -5.776 -11.357  26.713  0.00  0.00    +0.000 C 
ATOM    157  S   UNK A  12      -5.259 -12.144  25.179  0.00  0.00    +0.000 S 
ATOM    158  C   UNK A  12      -5.631 -10.853  23.988  0.00  0.00    +0.000 C 
ATOM    159  N   UNK A  12      -7.076 -14.654  29.823  0.00  0.00    +0.000 N 
ATOM    160  C   UNK A  12      -6.972 -15.739  30.801  0.00  0.00    +0.000 C 
ATOM    161  C   UNK A  12      -7.440 -17.054  30.179  0.00  0.00    +0.000 C 
ATOM    162  O   UNK A  12      -6.770 -18.082  30.304  0.00  0.00    +0.000 OA
ATOM    163  C   UNK A  12      -7.797 -15.427  32.053  0.00  0.00    +0.000 C 
ATOM    164  C   UNK A  12      -7.411 -16.264  33.271  0.00  0.00    +0.000 C 
ATOM    165  C   UNK A  12      -8.491 -16.249  34.347  0.00  0.00    +0.000 C 
ATOM    166  C   UNK A  12      -9.535 -17.338  34.106  0.00  0.00    +0.000 C 
ATOM    167  N   UNK A  12     -10.611 -17.335  35.141  0.00  0.00    +0.000 N 
ATOM    168  N   UNK A  12      -8.583 -17.000  29.494  0.00  0.00    +0.000 N 
ATOM    169  C   UNK A  12      -9.175 -18.167  28.842  0.00  0.00    +0.000 C 
ATOM    170  C   UNK A  12      -8.241 -18.821  27.825  0.00  0.00    +0.000 C 
ATOM    171  O   UNK A  12      -8.183 -20.048  27.736  0.00  0.00    +0.000 OA
ATOM    172  C   UNK A  12     -10.501 -17.791  28.188  0.00  0.00    +0.000 C 
ATOM    173  N   UNK A  12      -7.499 -18.003  27.079  0.00  0.00    +0.000 N 
ATOM    174  C   UNK A  12      -6.657 -18.503  25.984  0.00  0.00    +0.000 C 
ATOM    175  C   UNK A  12      -5.243 -18.924  26.416  0.00  0.00    +0.000 C 
ATOM    176  O   UNK A  12      -4.521 -19.567  25.650  0.00  0.00    +0.000 OA
ATOM    177  C   UNK A  12      -6.626 -17.527  24.766  0.00  0.00    +0.000 C 
ATOM    178  C   UNK A  12      -6.164 -16.126  25.173  0.00  0.00    +0.000 C 
ATOM    179  C   UNK A  12      -7.999 -17.446  24.112  0.00  0.00    +0.000 C 
ATOM    180  C   UNK A  12      -4.753 -15.803  24.784  0.00  0.00    +0.000 C 
ATOM    181  N   UNK A  12      -4.861 -18.562  27.638  0.00  0.00    +0.000 N 
ATOM    182  C   UNK A  12      -3.586 -18.997  28.211  0.00  0.00    +0.000 C 
ATOM    183  C   UNK A  12      -2.444 -18.003  28.098  0.00  0.00    +0.000 C 
ATOM    184  O   UNK A  12      -1.274 -18.396  28.086  0.00  0.00    +0.000 OA
ATOM    185  N   UNK A  12      -2.777 -16.716  28.015  0.00  0.00    +0.000 N 
ATOM    186  C   UNK A  12      -1.771 -15.657  28.060  0.00  0.00    +0.000 C 
ATOM    187  C   UNK A  12      -1.239 -15.597  29.496  0.00  0.00    +0.000 C 
ATOM    188  O   UNK A  12      -2.034 -15.587  30.438  0.00  0.00    +0.000 OA
ATOM    189  C   UNK A  12      -2.397 -14.307  27.688  0.00  0.00    +0.000 C 
ATOM    190  C   UNK A  12      -1.789 -13.339  26.658  0.00  0.00    +0.000 C 
ATOM    191  C   UNK A  12      -2.021 -11.904  27.110  0.00  0.00    +0.000 C 
ATOM    192  C   UNK A  12      -0.307 -13.560  26.362  0.00  0.00    +0.000 C 
ATOM    193  N   UNK A  12       0.100 -15.594  29.672  0.00  0.00    +0.000 N 
ATOM    194  C   UNK A  12       0.692 -15.428  31.008  0.00  0.00    +0.000 C 
ATOM    195  C   UNK A  12       0.127 -14.208  31.738  0.00  0.00    +0.000 C 
ATOM    196  O   UNK A  12      -0.037 -13.149  31.120  0.00  0.00    +0.000 OA
ATOM    197  C   UNK A  12       2.177 -15.229  30.705  0.00  0.00    +0.000 C 
ATOM    198  C   UNK A  12       2.394 -15.975  29.437  0.00  0.00    +0.000 C 
ATOM    199  C   UNK A  12       1.134 -15.784  28.637  0.00  0.00    +0.000 C 
ATOM    200  N   UNK A  12      -0.152 -14.369  33.035  0.00  0.00    +0.000 N 
ATOM    201  C   UNK A  12      -0.799 -13.324  33.835  0.00  0.00    +0.000 C 
ATOM    202  H   GLY A   1      -6.962  -3.043  -5.578  0.00  0.00    +0.000 HD
ATOM    203  H   GLY A   1      -6.146  -3.945  -4.440  0.00  0.00    +0.000 HD
ATOM    204  H   GLY A   1      -5.857  -2.310  -4.570  0.00  0.00    +0.000 HD
ATOM    205  H   SER A   2      -8.112  -1.140  -1.716  0.00  0.00    +0.000 HD
ATOM    206  H   SER A   2      -6.534   1.116  -0.195  0.00  0.00    +0.000 HD
ATOM    207  H   GLY A   3      -9.043  -2.156   0.337  0.00  0.00    +0.000 HD
ATOM    208  H   PHE A   4      -8.421  -2.613   3.169  0.00  0.00    +0.000 HD
ATOM    209  H   SER A   5      -6.415  -0.920   3.532  0.00  0.00    +0.000 HD
ATOM    210  H   SER A   5      -4.493  -1.608   2.462  0.00  0.00    +0.000 HD
ATOM    211  H   GLY A   6      -3.135   0.120   6.589  0.00  0.00    +0.000 HD
ATOM    212  H   LYS A   7      -3.073   3.550   9.340  0.00  0.00    +0.000 HD
ATOM    213  H   LYS A   7       3.471   3.725  13.295  0.00  0.00    +0.000 HD
ATOM    214  H   LYS A   7       3.300   4.967  12.199  0.00  0.00    +0.000 HD
ATOM    215  H   LYS A   7       4.090   3.569  11.757  0.00  0.00    +0.000 HD
ATOM    216  H   TYR A   8      -3.212   1.231  13.034  0.00  0.00    +0.000 HD
ATOM    217  H   TYR A   8      -7.100   0.568   7.450  0.00  0.00    +0.000 HD
ATOM    218  H   GLN A   9      -5.528   3.540  15.939  0.00  0.00    +0.000 HD
ATOM    219  H   GLN A   9      -1.410   3.264  21.165  0.00  0.00    +0.000 HD
ATOM    220  H   GLN A   9      -0.786   4.848  21.263  0.00  0.00    +0.000 HD
ATOM    221  H   LEU A  10      -4.869   0.886  19.407  0.00  0.00    +0.000 HD
ATOM    222  H   GLN A  11      -9.156   1.832  20.601  0.00  0.00    +0.000 HD
ATOM    223  H   GLN A  11      -7.361   4.625  19.178  0.00  0.00    +0.000 HD
ATOM    224  H   GLN A  11      -6.767   6.125  19.731  0.00  0.00    +0.000 HD
ATOM    225  H   UNK A  12     -10.486   1.363  22.160  0.00  0.00    +0.000 HD
ATOM    226  H   UNK A  12     -13.448   0.745  23.277  0.00  0.00    +0.000 HD
ATOM    227  H   UNK A  12     -11.376  -0.817  25.807  0.00  0.00    +0.000 HD
ATOM    228  H   UNK A  12      -6.220  -4.227  25.957  0.00  0.00    +0.000 HD
ATOM    229  H   UNK A  12      -7.196  -3.186  26.891  0.00  0.00    +0.000 HD
ATOM    230  H   UNK A  12     -13.319  -4.561  24.701  0.00  0.00    +0.000 HD
ATOM    231  H   UNK A  12     -13.723  -6.147  28.765  0.00  0.00    +0.000 HD
ATOM    232  H   UNK A  12     -16.617  -8.929  26.455  0.00  0.00    +0.000 HD
ATOM    233  H   UNK A  12     -17.739  -8.367  27.609  0.00  0.00    +0.000 HD
ATOM    234  H   UNK A  12     -11.204  -6.927  28.211  0.00  0.00    +0.000 HD
ATOM    235  H   UNK A  12      -9.686  -8.291  30.291  0.00  0.00    +0.000 HD
ATOM    236  H   UNK A  12     -11.113 -10.575  30.982  0.00  0.00    +0.000 HD
ATOM    237  H   UNK A  12     -11.032 -11.833  28.466  0.00  0.00    +0.000 HD
ATOM    238  H   UNK A  12      -8.367 -12.282  28.063  0.00  0.00    +0.000 HD
ATOM    239  H   UNK A  12      -7.688 -13.905  30.004  0.00  0.00    +0.000 HD
ATOM    240  H   UNK A  12     -10.202 -17.516  36.058  0.00  0.00    +0.000 HD
ATOM    241  H   UNK A  12     -11.294 -18.061  34.924  0.00  0.00    +0.000 HD
ATOM    242  H   UNK A  12     -11.073 -16.426  35.149  0.00  0.00    +0.000 HD
ATOM    243  H   UNK A  12      -9.049 -16.136  29.424  0.00  0.00    +0.000 HD
ATOM    244  H   UNK A  12      -7.516 -17.037  27.267  0.00  0.00    +0.000 HD
ATOM    245  H   UNK A  12      -5.453 -17.985  28.172  0.00  0.00    +0.000 HD
ATOM    246  H   UNK A  12      -3.726 -16.472  27.921  0.00  0.00    +0.000 HD
ATOM    247  H   UNK A  12       0.085 -15.220  33.469  0.00  0.00    +0.000 HD
TER 
REMARK  Name = 3B2H_protA.pdb
REMARK                            x       y       z     vdW  Elec       q    Type
REMARK                         _______ _______ _______ _____ _____    ______ ____
ATOM      1  C   UNL     1      -9.783  -0.906   1.875  0.00  0.00    +0.000 C 
ATOM      2  C   UNL     1     -11.069  -1.705   1.822  0.00  0.00    +0.000 C 
ATOM      3  O   UNL     1     -12.005  -1.301   2.761  0.00  0.00    +0.000 OA
ATOM      4  O   UNL     1     -11.770  -1.460   0.614  0.00  0.00    +0.000 OA
ATOM      5  H   UNL     1     -11.805  -1.354   3.675  0.00  0.00    +0.000 HD
ATOM      6  H   UNL     1     -11.364  -1.648  -0.209  0.00  0.00    +0.000 HD
TER 
REMARK  Name = 3B2H_protA.pdb
REMARK                            x       y       z     vdW  Elec       q    Type
REMARK                         _______ _______ _______ _____ _____    ______ ____
ATOM      1  C   UNL     2     -11.037  -1.782   1.849  0.00  0.00    +0.000 C 
TER 
REMARK  Name = 3B2H_protA.pdb
REMARK                            x       y       z     vdW  Elec       q    Type
REMARK                         _______ _______ _______ _____ _____    ______ ____
ATOM      1  C   UNK C   0      -0.794 -13.324  33.843  0.00  0.00    +0.000 C 
ATOM      2  C   UNK C   0      -0.005 -12.016  33.870  0.00  0.00    +0.000 C 
ATOM      3  O   UNK C   0      -0.591 -10.935  33.952  0.00  0.00    +0.000 OA
ATOM      4  C   UNK C   0      -1.075 -13.825  35.259  0.00  0.00    +0.000 C 
ATOM      5  N   GLU C   1       1.322 -12.123  33.804  0.00  0.00    +0.000 N 
ATOM      6  CA  GLU C   1       2.196 -10.950  33.800  0.00  0.00    +0.000 C 
ATOM      7  C   GLU C   1       1.977 -10.096  32.551  0.00  0.00    +0.000 C 
ATOM      8  O   GLU C   1       2.010  -8.864  32.620  0.00  0.00    +0.000 OA
ATOM      9  CB  GLU C   1       3.675 -11.344  33.956  0.00  0.00    +0.000 C 
ATOM     10  CG  GLU C   1       4.217 -12.350  32.932  0.00  0.00    +0.000 C 
ATOM     11  CD  GLU C   1       4.065 -13.807  33.359  0.00  0.00    +0.000 C 
ATOM     12  OE2 GLU C   1       3.203 -14.113  34.214  0.00  0.00    +0.000 OA
ATOM     13  OE1 GLU C   1       4.814 -14.655  32.826  0.00  0.00    +0.000 OA
ATOM     14  N   LEU C   2       1.734 -10.758  31.421  0.00  0.00    +0.000 N 
ATOM     15  CA  LEU C   2       1.458 -10.072  30.165  0.00  0.00    +0.000 C 
ATOM     16  C   LEU C   2       0.035  -9.522  30.132  0.00  0.00    +0.000 C 
ATOM     17  O   LEU C   2      -0.208  -8.473  29.539  0.00  0.00    +0.000 OA
ATOM     18  CB  LEU C   2       1.710 -10.996  28.967  0.00  0.00    +0.000 C 
ATOM     19  CG  LEU C   2       3.124 -11.561  28.770  0.00  0.00    +0.000 C 
ATOM     20  CD1 LEU C   2       3.186 -12.394  27.498  0.00  0.00    +0.000 C 
ATOM     21  CD2 LEU C   2       4.176 -10.458  28.737  0.00  0.00    +0.000 C 
ATOM     22  N   ILE C   3      -0.895 -10.233  30.771  0.00  0.00    +0.000 N 
ATOM     23  CA  ILE C   3      -2.280  -9.773  30.911  0.00  0.00    +0.000 C 
ATOM     24  C   ILE C   3      -2.336  -8.461  31.694  0.00  0.00    +0.000 C 
ATOM     25  O   ILE C   3      -2.957  -7.490  31.255  0.00  0.00    +0.000 OA
ATOM     26  CB  ILE C   3      -3.177 -10.842  31.598  0.00  0.00    +0.000 C 
ATOM     27  CG1 ILE C   3      -3.292 -12.090  30.713  0.00  0.00    +0.000 C 
ATOM     28  CG2 ILE C   3      -4.561 -10.267  31.943  0.00  0.00    +0.000 C 
ATOM     29  CD1 ILE C   3      -4.167 -13.190  31.287  0.00  0.00    +0.000 C 
ATOM     30  N   GLN C   4      -1.670  -8.436  32.845  0.00  0.00    +0.000 N 
ATOM     31  CA  GLN C   4      -1.699  -7.268  33.721  0.00  0.00    +0.000 C 
ATOM     32  C   GLN C   4      -0.936  -6.073  33.150  0.00  0.00    +0.000 C 
ATOM     33  O   GLN C   4      -1.361  -4.928  33.318  0.00  0.00    +0.000 OA
ATOM     34  CB  GLN C   4      -1.202  -7.629  35.126  0.00  0.00    +0.000 C 
ATOM     35  CG  GLN C   4      -2.162  -8.533  35.905  0.00  0.00    +0.000 C 
ATOM     36  CD  GLN C   4      -3.578  -7.974  35.976  0.00  0.00    +0.000 C 
ATOM     37  OE1 GLN C   4      -3.793  -6.849  36.433  0.00  0.00    +0.000 OA
ATOM     38  NE2 GLN C   4      -4.549  -8.758  35.517  0.00  0.00    +0.000 N 
ATOM     39  N   LYS C   5       0.176  -6.339  32.468  0.00  0.00    +0.000 N 
ATOM     40  CA  LYS C   5       0.958  -5.273  31.836  0.00  0.00    +0.000 C 
ATOM     41  C   LYS C   5       0.380  -4.842  30.486  0.00  0.00    +0.000 C 
ATOM     42  O   LYS C   5       0.762  -3.799  29.947  0.00  0.00    +0.000 OA
ATOM     43  CB  LYS C   5       2.428  -5.676  31.687  0.00  0.00    +0.000 C 
ATOM     44  CG  LYS C   5       3.199  -5.717  33.000  0.00  0.00    +0.000 C 
ATOM     45  CD  LYS C   5       4.699  -5.826  32.764  0.00  0.00    +0.000 C 
ATOM     46  CE  LYS C   5       5.461  -5.883  34.080  0.00  0.00    +0.000 C 
ATOM     47  NZ  LYS C   5       6.938  -5.837  33.880  0.00  0.00    +0.000 N 
ATOM     48  N   GLY C   6      -0.547  -5.638  29.954  0.00  0.00    +0.000 N 
ATOM     49  CA  GLY C   6      -1.113  -5.384  28.632  0.00  0.00    +0.000 C 
ATOM     50  C   GLY C   6      -2.535  -4.853  28.596  0.00  0.00    +0.000 C 
ATOM     51  O   GLY C   6      -2.983  -4.380  27.551  0.00  0.00    +0.000 OA
ATOM     52  N   GLY C   7      -3.236  -4.911  29.729  0.00  0.00    +0.000 N 
ATOM     53  CA  GLY C   7      -4.648  -4.520  29.766  0.00  0.00    +0.000 C 
ATOM     54  C   GLY C   7      -4.890  -3.028  29.530  0.00  0.00    +0.000 C 
ATOM     55  O   GLY C   7      -5.967  -2.642  29.068  0.00  0.00    +0.000 OA
ATOM     56  N   ASP C   8      -3.889  -2.201  29.824  0.00  0.00    +0.000 N 
ATOM     57  CA  ASP C   8      -4.005  -0.754  29.644  0.00  0.00    +0.000 C 
ATOM     58  C   ASP C   8      -3.143  -0.233  28.498  0.00  0.00    +0.000 C 
ATOM     59  O   ASP C   8      -3.015   0.978  28.298  0.00  0.00    +0.000 OA
ATOM     60  CB  ASP C   8      -3.689  -0.026  30.952  0.00  0.00    +0.000 C 
ATOM     61  CG  ASP C   8      -4.701  -0.331  32.040  0.00  0.00    +0.000 C 
ATOM     62  OD1 ASP C   8      -5.919  -0.198  31.780  0.00  0.00    +0.000 OA
ATOM     63  OD2 ASP C   8      -4.274  -0.711  33.149  0.00  0.00    +0.000 OA
ATOM     64  N   ILE C   9      -2.558  -1.158  27.742  0.00  0.00    +0.000 N 
ATOM     65  CA  ILE C   9      -1.802  -0.790  26.557  0.00  0.00    +0.000 C 
ATOM     66  C   ILE C   9      -2.766  -0.423  25.436  0.00  0.00    +0.000 C 
ATOM     67  O   ILE C   9      -3.721  -1.157  25.161  0.00  0.00    +0.000 OA
ATOM     68  CB  ILE C   9      -0.842  -1.918  26.118  0.00  0.00    +0.000 C 
ATOM     69  CG1 ILE C   9       0.302  -2.042  27.130  0.00  0.00    +0.000 C 
ATOM     70  CG2 ILE C   9      -0.298  -1.664  24.708  0.00  0.00    +0.000 C 
ATOM     71  CD1 ILE C   9       1.343  -3.095  26.782  0.00  0.00    +0.000 C 
ATOM     72  N   LYS C  10      -2.527   0.733  24.823  0.00  0.00    +0.000 N 
ATOM     73  CA  LYS C  10      -3.255   1.135  23.627  0.00  0.00    +0.000 C 
ATOM     74  C   LYS C  10      -2.426   0.716  22.423  0.00  0.00    +0.000 C 
ATOM     75  O   LYS C  10      -1.618   1.493  21.896  0.00  0.00    +0.000 OA
ATOM     76  CB  LYS C  10      -3.536   2.643  23.621  0.00  0.00    +0.000 C 
ATOM     77  CG  LYS C  10      -4.289   3.156  24.848  0.00  0.00    +0.000 C 
ATOM     78  CD  LYS C  10      -5.690   2.559  24.964  0.00  0.00    +0.000 C 
ATOM     79  CE  LYS C  10      -6.383   3.017  26.248  0.00  0.00    +0.000 C 
ATOM     80  NZ  LYS C  10      -5.738   2.461  27.474  0.00  0.00    +0.000 N 
ATOM     81  N   GLY C  11      -2.621  -0.531  22.006  0.00  0.00    +0.000 N 
ATOM     82  CA  GLY C  11      -1.817  -1.115  20.937  0.00  0.00    +0.000 C 
ATOM     83  C   GLY C  11      -2.048  -0.488  19.574  0.00  0.00    +0.000 C 
ATOM     84  O   GLY C  11      -3.096   0.113  19.322  0.00  0.00    +0.000 OA
ATOM     85  N   VAL C  12      -1.061  -0.640  18.696  0.00  0.00    +0.000 N 
ATOM     86  CA  VAL C  12      -1.140  -0.121  17.335  0.00  0.00    +0.000 C 
ATOM     87  C   VAL C  12      -1.160  -1.273  16.335  0.00  0.00    +0.000 C 
ATOM     88  O   VAL C  12      -0.304  -2.157  16.377  0.00  0.00    +0.000 OA
ATOM     89  CB  VAL C  12       0.035   0.848  17.026  0.00  0.00    +0.000 C 
ATOM     90  CG1 VAL C  12       0.079   1.211  15.545  0.00  0.00    +0.000 C 
ATOM     91  CG2 VAL C  12      -0.074   2.101  17.892  0.00  0.00    +0.000 C 
ATOM     92  N   UNK C  13      -2.155  -1.262  15.451  0.00  0.00    +0.000 N 
ATOM     93  C   UNK C  13      -2.241  -2.248  14.386  0.00  0.00    +0.000 C 
ATOM     94  C   UNK C  13      -1.975  -1.573  13.051  0.00  0.00    +0.000 C 
ATOM     95  O   UNK C  13      -2.603  -0.561  12.724  0.00  0.00    +0.000 OA
ATOM     96  C   UNK C  13      -3.615  -2.923  14.383  0.00  0.00    +0.000 C 
ATOM     97  O   UNK C  13      -3.797  -3.688  15.562  0.00  0.00    +0.000 OA
ATOM     98  N   UNK C  13      -1.019  -2.122  12.303  0.00  0.00    +0.000 N 
ATOM     99  C   UNK C  13      -0.715  -1.627  10.966  0.00  0.00    +0.000 C 
ATOM    100  C   UNK C  13      -1.112  -2.684   9.949  0.00  0.00    +0.000 C 
ATOM    101  O   UNK C  13      -0.668  -3.834  10.026  0.00  0.00    +0.000 OA
ATOM    102  N   UNK C  13      -1.956  -2.286   9.003  0.00  0.00    +0.000 N 
ATOM    103  C   UNK C  13      -2.453  -3.206   7.987  0.00  0.00    +0.000 C 
ATOM    104  C   UNK C  13      -2.050  -2.724   6.607  0.00  0.00    +0.000 C 
ATOM    105  O   UNK C  13      -2.205  -1.550   6.283  0.00  0.00    +0.000 OA
ATOM    106  C   UNK C  13      -3.997  -3.333   8.023  0.00  0.00    +0.000 C 
ATOM    107  C   UNK C  13      -4.495  -3.632   9.443  0.00  0.00    +0.000 C 
ATOM    108  C   UNK C  13      -4.469  -4.403   7.034  0.00  0.00    +0.000 C 
ATOM    109  C   UNK C  13      -6.009  -3.537   9.598  0.00  0.00    +0.000 C 
ATOM    110  N   UNK C  13      -1.528  -3.641   5.799  0.00  0.00    +0.000 N 
ATOM    111  C   UNK C  13      -1.308  -3.376   4.384  0.00  0.00    +0.000 C 
ATOM    112  C   UNK C  13      -2.142  -4.380   3.593  0.00  0.00    +0.000 C 
ATOM    113  O   UNK C  13      -1.880  -5.589   3.630  0.00  0.00    +0.000 OA
ATOM    114  C   UNK C  13       0.184  -3.467   3.982  0.00  0.00    +0.000 C 
ATOM    115  C   UNK C  13       0.352  -3.168   2.497  0.00  0.00    +0.000 C 
ATOM    116  C   UNK C  13       1.026  -2.508   4.819  0.00  0.00    +0.000 C 
ATOM    117  N   UNK C  13      -3.162  -3.869   2.903  0.00  0.00    +0.000 N 
ATOM    118  C   UNK C  13      -3.976  -4.696   2.024  0.00  0.00    +0.000 C 
ATOM    119  C   UNK C  13      -3.600  -4.446   0.571  0.00  0.00    +0.000 C 
ATOM    120  O   UNK C  13      -3.535  -3.296   0.136  0.00  0.00    +0.000 OA
ATOM    121  C   UNK C  13      -5.469  -4.414   2.215  0.00  0.00    +0.000 C 
ATOM    122  C   UNK C  13      -6.338  -5.194   1.228  0.00  0.00    +0.000 C 
ATOM    123  C   UNK C  13      -7.824  -4.994   1.431  0.00  0.00    +0.000 C 
ATOM    124  O   UNK C  13      -8.257  -4.188   2.258  0.00  0.00    +0.000 OA
ATOM    125  N   UNK C  13      -8.620  -5.747   0.678  0.00  0.00    +0.000 N 
ATOM    126  N   UNK C  13      -3.356  -5.531  -0.163  0.00  0.00    +0.000 N 
ATOM    127  C   UNK C  13      -3.173  -5.473  -1.610  0.00  0.00    +0.000 C 
ATOM    128  C   UNK C  13      -4.051  -6.522  -2.281  0.00  0.00    +0.000 C 
ATOM    129  O   UNK C  13      -3.625  -7.657  -2.499  0.00  0.00    +0.000 OA
ATOM    130  C   UNK C  13      -1.705  -5.675  -2.002  0.00  0.00    +0.000 C 
ATOM    131  C   UNK C  13      -1.461  -5.447  -3.487  0.00  0.00    +0.000 C 
ATOM    132  O   UNK C  13      -2.366  -5.061  -4.228  0.00  0.00    +0.000 OA
ATOM    133  N   UNK C  13      -0.230  -5.683  -3.926  0.00  0.00    +0.000 N 
ATOM    134  N   UNK C  13      -5.280  -6.128  -2.601  0.00  0.00    +0.000 N 
ATOM    135  C   UNK C  13      -6.272  -7.060  -3.117  0.00  0.00    +0.000 C 
ATOM    136  C   UNK C  13      -6.611  -8.073  -2.045  0.00  0.00    +0.000 C 
ATOM    137  O   UNK C  13      -7.034  -7.707  -0.946  0.00  0.00    +0.000 OA
ATOM    138  N   UNK C  13      -6.405  -9.347  -2.363  0.00  0.00    +0.000 N 
ATOM    139  C   UNK C  13      -6.670 -10.427  -1.419  0.00  0.00    +0.000 C 
ATOM    140  C   UNK C  13      -5.519 -10.654  -0.442  0.00  0.00    +0.000 C 
ATOM    141  O   UNK C  13      -5.658 -11.419   0.511  0.00  0.00    +0.000 OA
ATOM    142  C   UNK C  13      -6.984 -11.725  -2.165  0.00  0.00    +0.000 C 
ATOM    143  C   UNK C  13      -8.334 -11.711  -2.863  0.00  0.00    +0.000 C 
ATOM    144  C   UNK C  13      -8.419 -12.750  -3.970  0.00  0.00    +0.000 C 
ATOM    145  C   UNK C  13      -8.448 -14.165  -3.426  0.00  0.00    +0.000 C 
ATOM    146  N   UNK C  13      -8.515 -15.168  -4.534  0.00  0.00    +0.000 N 
ATOM    147  N   UNK C  13      -4.393  -9.982  -0.673  0.00  0.00    +0.000 N 
ATOM    148  C   UNK C  13      -3.195 -10.198   0.139  0.00  0.00    +0.000 C 
ATOM    149  C   UNK C  13      -3.068  -9.201   1.281  0.00  0.00    +0.000 C 
ATOM    150  O   UNK C  13      -3.000  -7.992   1.057  0.00  0.00    +0.000 OA
ATOM    151  C   UNK C  13      -1.945 -10.160  -0.738  0.00  0.00    +0.000 C 
ATOM    152  C   UNK C  13      -1.950 -11.186  -1.824  0.00  0.00    +0.000 A 
ATOM    153  N   UNK C  13      -1.801 -12.533  -1.574  0.00  0.00    +0.000 N 
ATOM    154  C   UNK C  13      -2.107 -11.066  -3.164  0.00  0.00    +0.000 A 
ATOM    155  C   UNK C  13      -1.860 -13.199  -2.714  0.00  0.00    +0.000 A 
ATOM    156  N   UNK C  13      -2.045 -12.331  -3.694  0.00  0.00    +0.000 NA
ATOM    157  N   UNK C  13      -3.026  -9.724   2.504  0.00  0.00    +0.000 N 
ATOM    158  C   UNK C  13      -2.944  -8.899   3.704  0.00  0.00    +0.000 C 
ATOM    159  C   UNK C  13      -1.668  -9.137   4.485  0.00  0.00    +0.000 C 
ATOM    160  O   UNK C  13      -1.207 -10.271   4.616  0.00  0.00    +0.000 OA
ATOM    161  C   UNK C  13      -4.110  -9.201   4.638  0.00  0.00    +0.000 C 
ATOM    162  C   UNK C  13      -5.409  -8.575   4.228  0.00  0.00    +0.000 A 
ATOM    163  C   UNK C  13      -6.161  -9.107   3.182  0.00  0.00    +0.000 A 
ATOM    164  C   UNK C  13      -5.898  -7.469   4.914  0.00  0.00    +0.000 A 
ATOM    165  C   UNK C  13      -7.366  -8.538   2.819  0.00  0.00    +0.000 A 
ATOM    166  C   UNK C  13      -7.112  -6.898   4.563  0.00  0.00    +0.000 A 
ATOM    167  C   UNK C  13      -7.843  -7.433   3.509  0.00  0.00    +0.000 A 
ATOM    168  N   UNK C  13      -1.112  -8.054   5.011  0.00  0.00    +0.000 N 
ATOM    169  C   UNK C  13      -0.070  -8.131   6.020  0.00  0.00    +0.000 C 
ATOM    170  C   UNK C  13      -0.505  -7.249   7.169  0.00  0.00    +0.000 C 
ATOM    171  O   UNK C  13      -0.993  -6.140   6.956  0.00  0.00    +0.000 OA
ATOM    172  C   UNK C  13       1.265  -7.644   5.467  0.00  0.00    +0.000 C 
ATOM    173  C   UNK C  13       1.960  -8.645   4.576  0.00  0.00    +0.000 C 
ATOM    174  C   UNK C  13       3.382  -8.206   4.282  0.00  0.00    +0.000 C 
ATOM    175  C   UNK C  13       4.141  -9.287   3.539  0.00  0.00    +0.000 C 
ATOM    176  N   UNK C  13       5.549  -8.870   3.280  0.00  0.00    +0.000 N 
ATOM    177  N   UNK C  13      -0.366  -7.746   8.388  0.00  0.00    +0.000 N 
ATOM    178  C   UNK C  13      -0.628  -6.886   9.530  0.00  0.00    +0.000 C 
ATOM    179  C   UNK C  13       0.366  -7.063  10.659  0.00  0.00    +0.000 C 
ATOM    180  O   UNK C  13       0.861  -8.164  10.906  0.00  0.00    +0.000 OA
ATOM    181  C   UNK C  13      -2.089  -6.971   9.999  0.00  0.00    +0.000 C 
ATOM    182  C   UNK C  13      -2.485  -8.302  10.554  0.00  0.00    +0.000 A 
ATOM    183  C   UNK C  13      -2.749  -9.377   9.710  0.00  0.00    +0.000 A 
ATOM    184  C   UNK C  13      -2.629  -8.477  11.928  0.00  0.00    +0.000 A 
ATOM    185  C   UNK C  13      -3.129 -10.610  10.224  0.00  0.00    +0.000 A 
ATOM    186  C   UNK C  13      -3.012  -9.707  12.453  0.00  0.00    +0.000 A 
ATOM    187  C   UNK C  13      -3.263 -10.779  11.599  0.00  0.00    +0.000 A 
ATOM    188  N   UNK C  13       0.672  -5.949  11.311  0.00  0.00    +0.000 N 
ATOM    189  C   UNK C  13       1.614  -5.920  12.413  0.00  0.00    +0.000 C 
ATOM    190  C   UNK C  13       0.901  -5.343  13.630  0.00  0.00    +0.000 C 
ATOM    191  O   UNK C  13       0.374  -4.229  13.582  0.00  0.00    +0.000 OA
ATOM    192  C   UNK C  13       2.857  -5.070  12.061  0.00  0.00    +0.000 C 
ATOM    193  O   UNK C  13       3.474  -5.587  10.873  0.00  0.00    +0.000 OA
ATOM    194  C   UNK C  13       3.866  -5.088  13.196  0.00  0.00    +0.000 C 
ATOM    195  N   UNK C  13       0.865  -6.123  14.707  0.00  0.00    +0.000 N 
ATOM    196  C   UNK C  13       0.267  -5.683  15.961  0.00  0.00    +0.000 C 
ATOM    197  C   UNK C  13       1.392  -5.397  16.953  0.00  0.00    +0.000 C 
ATOM    198  O   UNK C  13       2.215  -6.270  17.225  0.00  0.00    +0.000 OA
ATOM    199  C   UNK C  13      -0.708  -6.745  16.533  0.00  0.00    +0.000 C 
ATOM    200  C   UNK C  13      -1.875  -6.978  15.563  0.00  0.00    +0.000 C 
ATOM    201  C   UNK C  13      -1.229  -6.325  17.914  0.00  0.00    +0.000 C 
ATOM    202  C   UNK C  13      -2.672  -8.247  15.835  0.00  0.00    +0.000 C 
ATOM    203  N   UNK C  13       1.426  -4.171  17.473  0.00  0.00    +0.000 N 
ATOM    204  C   UNK C  13       2.417  -3.783  18.474  0.00  0.00    +0.000 C 
ATOM    205  C   UNK C  13       1.732  -3.449  19.797  0.00  0.00    +0.000 C 
ATOM    206  O   UNK C  13       0.796  -2.651  19.842  0.00  0.00    +0.000 OA
ATOM    207  C   UNK C  13       3.272  -2.587  17.996  0.00  0.00    +0.000 C 
ATOM    208  O   UNK C  13       3.832  -2.888  16.713  0.00  0.00    +0.000 OA
ATOM    209  C   UNK C  13       4.407  -2.283  18.983  0.00  0.00    +0.000 C 
ATOM    210  N   UNK C  13       2.202  -4.084  20.865  0.00  0.00    +0.000 N 
ATOM    211  C   UNK C  13       1.742  -3.791  22.216  0.00  0.00    +0.000 C 
ATOM    212  C   UNK C  13       0.683  -4.785  22.643  0.00  0.00    +0.000 C 
ATOM    213  H   GLU C   1       1.726 -13.019  33.756  0.00  0.00    +0.000 HD
ATOM    214  H   LEU C   2       1.741 -11.742  31.435  0.00  0.00    +0.000 HD
ATOM    215  H   ILE C   3      -0.642 -11.100  31.164  0.00  0.00    +0.000 HD
ATOM    216  H   GLN C   4      -1.145  -9.224  33.113  0.00  0.00    +0.000 HD
ATOM    217  H   GLN C   4      -4.334  -9.650  35.160  0.00  0.00    +0.000 HD
ATOM    218  H   GLN C   4      -5.483  -8.446  35.534  0.00  0.00    +0.000 HD
ATOM    219  H   LYS C   5       0.479  -7.272  32.387  0.00  0.00    +0.000 HD
ATOM    220  H   LYS C   5       7.232  -6.644  33.330  0.00  0.00    +0.000 HD
ATOM    221  H   LYS C   5       7.405  -5.855  34.787  0.00  0.00    +0.000 HD
ATOM    222  H   LYS C   5       7.188  -4.980  33.386  0.00  0.00    +0.000 HD
ATOM    223  H   GLY C   6      -0.859  -6.419  30.466  0.00  0.00    +0.000 HD
ATOM    224  H   GLY C   7      -2.798  -5.222  30.554  0.00  0.00    +0.000 HD
ATOM    225  H   ASP C   8      -3.047  -2.574  30.172  0.00  0.00    +0.000 HD
ATOM    226  H   ILE C   9      -2.639  -2.107  27.989  0.00  0.00    +0.000 HD
ATOM    227  H   LYS C  10      -1.838   1.334  25.188  0.00  0.00    +0.000 HD
ATOM    228  H   LYS C  10      -5.794   1.443  27.456  0.00  0.00    +0.000 HD
ATOM    229  H   LYS C  10      -6.220   2.814  28.301  0.00  0.00    +0.000 HD
ATOM    230  H   LYS C  10      -4.759   2.747  27.503  0.00  0.00    +0.000 HD
ATOM    231  H   GLY C  11      -3.325  -1.074  22.429  0.00  0.00    +0.000 HD
ATOM    232  H   VAL C  12      -0.248  -1.120  18.974  0.00  0.00    +0.000 HD
ATOM    233  H   UNK C  13      -2.850  -0.569  15.520  0.00  0.00    +0.000 HD
ATOM    234  H   UNK C  13      -3.116  -4.377  15.609  0.00  0.00    +0.000 HD
ATOM    235  H   UNK C  13      -0.505  -2.881  12.662  0.00  0.00    +0.000 HD
ATOM    236  H   UNK C  13      -2.253  -1.347   8.988  0.00  0.00    +0.000 HD
ATOM    237  H   UNK C  13      -1.284  -4.521   6.166  0.00  0.00    +0.000 HD
ATOM    238  H   UNK C  13      -3.369  -2.911   2.990  0.00  0.00    +0.000 HD
ATOM    239  H   UNK C  13      -8.232  -6.378   0.030  0.00  0.00    +0.000 HD
ATOM    240  H   UNK C  13      -9.598  -5.674   0.769  0.00  0.00    +0.000 HD
ATOM    241  H   UNK C  13      -3.297  -6.404   0.287  0.00  0.00    +0.000 HD
ATOM    242  H   UNK C  13      -0.013  -5.553  -4.877  0.00  0.00    +0.000 HD
ATOM    243  H   UNK C  13       0.466  -5.988  -3.300  0.00  0.00    +0.000 HD
ATOM    244  H   UNK C  13      -5.525  -5.182  -2.486  0.00  0.00    +0.000 HD
ATOM    245  H   UNK C  13      -6.064  -9.568  -3.260  0.00  0.00    +0.000 HD
ATOM    246  H   UNK C  13      -7.690 -15.075  -5.127  0.00  0.00    +0.000 HD
ATOM    247  H   UNK C  13      -9.354 -15.004  -5.091  0.00  0.00    +0.000 HD
ATOM    248  H   UNK C  13      -8.547 -16.108  -4.140  0.00  0.00    +0.000 HD
ATOM    249  H   UNK C  13      -4.366  -9.325  -1.406  0.00  0.00    +0.000 HD
ATOM    250  H   UNK C  13      -1.671 -12.936  -0.685  0.00  0.00    +0.000 HD
ATOM    251  H   UNK C  13      -3.051 -10.703   2.602  0.00  0.00    +0.000 HD
ATOM    252  H   UNK C  13      -1.416  -7.168   4.707  0.00  0.00    +0.000 HD
ATOM    253  H   UNK C  13       6.023  -8.703   4.168  0.00  0.00    +0.000 HD
ATOM    254  H   UNK C  13       5.554  -8.014   2.726  0.00  0.00    +0.000 HD
ATOM    255  H   UNK C  13       6.034  -9.608   2.769  0.00  0.00    +0.000 HD
ATOM    256  H   UNK C  13      -0.090  -8.682   8.519  0.00  0.00    +0.000 HD
ATOM    257  H   UNK C  13       0.242  -5.107  11.035  0.00  0.00    +0.000 HD
ATOM    258  H   UNK C  13       3.759  -6.501  11.028  0.00  0.00    +0.000 HD
ATOM    259  H   UNK C  13       1.255  -7.026  14.655  0.00  0.00    +0.000 HD
ATOM    260  H   UNK C  13       0.764  -3.507  17.174  0.00  0.00    +0.000 HD
ATOM    261  H   UNK C  13       4.402  -3.669  16.784  0.00  0.00    +0.000 HD
ATOM    262  H   UNK C  13       2.887  -4.779  20.739  0.00  0.00    +0.000 HD
TER 
REMARK  Name = 3B2H_protA.pdb
REMARK                            x       y       z     vdW  Elec       q    Type
REMARK                         _______ _______ _______ _____ _____    ______ ____
ATOM      1  C   UNL     3      -1.071 -13.810  35.276  0.00  0.00    +0.000 C 
ATOM      2  C   UNL     3       0.171 -14.141  36.110  0.00  0.00    +0.000 C 
ATOM      3  C   UNL     3      -2.124 -13.018  36.035  0.00  0.00    +0.000 C 
ATOM      4  C   UNL     3      -0.010 -13.860  37.599  0.00  0.00    +0.000 C 
ATOM      5  C   UNL     3      -3.530 -13.127  35.452  0.00  0.00    +0.000 C 
ATOM      6  O   UNL     3      -1.157 -13.907  38.097  0.00  0.00    +0.000 OA
ATOM      7  O   UNL     3      -3.878 -14.191  34.895  0.00  0.00    +0.000 OA
ATOM      8  O   UNL     3       1.008 -13.596  38.276  0.00  0.00    +0.000 OA
ATOM      9  O   UNL     3      -4.293 -12.144  35.561  0.00  0.00    +0.000 OA
TER 
REMARK  Name = 3B2H_protA.pdb
REMARK                            x       y       z     vdW  Elec       q    Type
REMARK                         _______ _______ _______ _____ _____    ______ ____
ATOM      1  C   UNL     2      -4.647  -4.513  29.810  0.00  0.00    +0.000 C 
ATOM      2  C   UNL     2      -5.336  -5.002  31.052  0.00  0.00    +0.000 C 
TER 
REMARK  Name = 3B2H_protA.pdb
REMARK                            x       y       z     vdW  Elec       q    Type
REMARK                         _______ _______ _______ _____ _____    ______ ____
ATOM      1  C   UNL     4      -5.245  -4.902  31.169  0.00  0.00    +0.000 C 
ATOM      2  C   UNL     4      -4.837  -4.381  32.344  0.00  0.00    +0.000 C 
ATOM      3  C   UNL     4      -5.658  -4.892  33.516  0.00  0.00    +0.000 C 
ATOM      4  C   UNL     4      -5.251  -4.657  33.673  0.00  0.00    +0.000 C 
ATOM      5  C   UNL     4      -5.248  -4.229  34.815  0.00  0.00    +0.000 C 
ATOM      6  C   UNL     4      -4.626  -3.945  34.864  0.00  0.00    +0.000 C 
ATOM      7  N   UNL     4      -6.080  -4.707  35.953  0.00  0.00    +0.000 N 
ATOM      8  N   UNL     4      -3.275  -4.470  35.201  0.00  0.00    +0.000 N 
ATOM      9  H   UNL     4      -5.692  -5.578  36.316  0.00  0.00    +0.000 HD
ATOM     10  H   UNL     4      -7.035  -4.868  35.632  0.00  0.00    +0.000 HD
ATOM     11  H   UNL     4      -6.083  -4.003  36.691  0.00  0.00    +0.000 HD
ATOM     12  H   UNL     4      -3.205  -4.605  36.210  0.00  0.00    +0.000 HD
ATOM     13  H   UNL     4      -2.566  -3.803  34.897  0.00  0.00    +0.000 HD
ATOM     14  H   UNL     4      -3.129  -5.361  34.727  0.00  0.00    +0.000 HD
TER 
REMARK  Name = 3B2H_protA.pdb
REMARK                            x       y       z     vdW  Elec       q    Type
REMARK                         _______ _______ _______ _____ _____    ______ ____
ATOM      1  C   UNL     5      -4.547  -4.287  32.377  0.00  0.00    +0.000 C 
TER 
REMARK  Name = 3B2H_protA.pdb
REMARK                            x       y       z     vdW  Elec       q    Type
REMARK                         _______ _______ _______ _____ _____    ______ ____
ATOM      1  C   UNL     6      -0.700  -1.631  10.966  0.00  0.00    +0.000 C 
ATOM      2  C   UNL     6       0.796  -1.343  10.831  0.00  0.00    +0.000 C 
ATOM      3  C   UNL     6       0.768  -1.278  10.827  0.00  0.00    +0.000 C 
ATOM      4  C   UNL     6       1.370  -0.438  11.905  0.00  0.00    +0.000 C 
ATOM      5  C   UNL     6       1.140  -0.647   9.483  0.00  0.00    +0.000 C 
ATOM      6  C   UNL     6       2.881  -0.356  11.839  0.00  0.00    +0.000 C 
ATOM      7  C   UNL     6       2.643  -0.546   9.279  0.00  0.00    +0.000 C 
ATOM      8  O   UNL     6       3.397   0.351  10.951  0.00  0.00    +0.000 OA
ATOM      9  O   UNL     6       3.359  -0.229  10.251  0.00  0.00    +0.000 OA
ATOM     10  O   UNL     6       3.550  -0.995  12.677  0.00  0.00    +0.000 OA
ATOM     11  O   UNL     6       3.112  -0.783   8.143  0.00  0.00    +0.000 OA
TER 
REMARK  Name = 3B2H_protA.pdb
REMARK                            x       y       z     vdW  Elec       q    Type
REMARK                         _______ _______ _______ _____ _____    ______ ____
ATOM      1  C   UNL     7       2.952  -3.867  23.133  0.00  0.00    +0.000 C 
ATOM      2  O   UNL     7       3.447  -4.960  23.411  0.00  0.00    +0.000 OA
ATOM      3  N   UNL     7       3.458  -2.738  23.624  0.00  0.00    +0.000 N 
ATOM      4  C   UNL     7       4.647  -2.465  24.242  0.00  0.00    +0.000 C 
ATOM      5  C   UNL     7       4.565  -2.749  24.615  0.00  0.00    +0.000 C 
ATOM      6  C   UNL     7       5.819  -2.886  23.382  0.00  0.00    +0.000 C 
ATOM      7  C   UNL     7       5.644  -3.828  24.468  0.00  0.00    +0.000 C 
ATOM      8  O   UNL     7       5.817  -2.719  22.162  0.00  0.00    +0.000 OA
ATOM      9  O   UNL     7       5.418  -4.998  24.782  0.00  0.00    +0.000 OA
ATOM     10  N   UNL     7       6.836  -3.398  24.058  0.00  0.00    +0.000 N 
ATOM     11  C   UNL     7       7.916  -4.222  23.467  0.00  0.00    +0.000 C 
ATOM     12  C   UNL     7       7.524  -5.316  22.452  0.00  0.00    +0.000 C 
ATOM     13  O   UNL     7       8.323  -5.655  21.574  0.00  0.00    +0.000 OA
ATOM     14  C   UNL     7       8.807  -4.823  24.564  0.00  0.00    +0.000 C 
ATOM     15  O   UNL     7       8.122  -5.822  25.297  0.00  0.00    +0.000 OA
ATOM     16  N   UNL     7       6.312  -5.861  22.574  0.00  0.00    +0.000 N 
ATOM     17  C   UNL     7       5.887  -7.020  21.787  0.00  0.00    +0.000 C 
ATOM     18  C   UNL     7       5.314  -6.657  20.415  0.00  0.00    +0.000 C 
ATOM     19  O   UNL     7       4.383  -5.856  20.303  0.00  0.00    +0.000 OA
ATOM     20  C   UNL     7       4.875  -7.856  22.574  0.00  0.00    +0.000 C 
ATOM     21  C   UNL     7       4.564  -9.206  21.952  0.00  0.00    +0.000 C 
ATOM     22  C   UNL     7       3.402  -9.876  22.657  0.00  0.00    +0.000 C 
ATOM     23  C   UNL     7       3.188 -11.284  22.135  0.00  0.00    +0.000 C 
ATOM     24  N   UNL     7       2.009 -11.928  22.761  0.00  0.00    +0.000 N 
ATOM     25  N   UNL     7       5.879  -7.277  19.381  0.00  0.00    +0.000 N 
ATOM     26  C   UNL     7       5.469  -7.057  17.997  0.00  0.00    +0.000 C 
ATOM     27  C   UNL     7       5.111  -8.404  17.362  0.00  0.00    +0.000 C 
ATOM     28  O   UNL     7       5.915  -9.340  17.381  0.00  0.00    +0.000 OA
ATOM     29  C   UNL     7       6.595  -6.367  17.178  0.00  0.00    +0.000 C 
ATOM     30  C   UNL     7       6.175  -6.153  15.729  0.00  0.00    +0.000 C 
ATOM     31  C   UNL     7       7.002  -5.041  17.814  0.00  0.00    +0.000 C 
ATOM     32  N   UNL     7       3.903  -8.502  16.812  0.00  0.00    +0.000 N 
ATOM     33  C   UNL     7       3.474  -9.718  16.121  0.00  0.00    +0.000 C 
ATOM     34  C   UNL     7       3.137  -9.387  14.676  0.00  0.00    +0.000 C 
ATOM     35  O   UNL     7       2.289  -8.529  14.419  0.00  0.00    +0.000 OA
ATOM     36  C   UNL     7       2.248 -10.371  16.800  0.00  0.00    +0.000 C 
ATOM     37  C   UNL     7       2.571 -10.722  18.256  0.00  0.00    +0.000 C 
ATOM     38  C   UNL     7       1.806 -11.629  16.042  0.00  0.00    +0.000 C 
ATOM     39  C   UNL     7       1.364 -10.934  19.118  0.00  0.00    +0.000 C 
ATOM     40  N   UNL     7       3.815 -10.062  13.749  0.00  0.00    +0.000 N 
ATOM     41  C   UNL     7       3.579  -9.886  12.321  0.00  0.00    +0.000 C 
ATOM     42  C   UNL     7       4.841  -9.593  11.539  0.00  0.00    +0.000 C 
ATOM     43  C   UNL     7       4.816  -9.064  10.222  0.00  0.00    +0.000 C 
ATOM     44  H   UNL     7       2.868  -1.956  23.524  0.00  0.00    +0.000 HD
ATOM     45  H   UNL     7       6.706  -2.887  21.811  0.00  0.00    +0.000 HD
ATOM     46  H   UNL     7       6.210  -5.534  24.622  0.00  0.00    +0.000 HD
ATOM     47  H   UNL     7       7.620  -2.985  24.563  0.00  0.00    +0.000 HD
ATOM     48  H   UNL     7       7.345  -5.432  25.728  0.00  0.00    +0.000 HD
ATOM     49  H   UNL     7       5.679  -5.469  23.218  0.00  0.00    +0.000 HD
ATOM     50  H   UNL     7       2.153 -11.994  23.769  0.00  0.00    +0.000 HD
ATOM     51  H   UNL     7       1.887 -12.863  22.373  0.00  0.00    +0.000 HD
ATOM     52  H   UNL     7       1.176 -11.370  22.572  0.00  0.00    +0.000 HD
ATOM     53  H   UNL     7       6.608  -7.914  19.558  0.00  0.00    +0.000 HD
ATOM     54  H   UNL     7       3.284  -7.739  16.872  0.00  0.00    +0.000 HD
ATOM     55  H   UNL     7       4.502 -10.705  14.039  0.00  0.00    +0.000 HD
TER 
REMARK  Name = 3B2H_protA.pdb
REMARK                            x       y       z     vdW  Elec       q    Type
REMARK                         _______ _______ _______ _____ _____    ______ ____
ATOM      1  N   UNL     8       3.391  -2.678  23.545  0.00  0.00    +0.000 N 
ATOM      2  H   UNL     8       4.411  -2.678  23.545  0.00  0.00    +0.000 HD
ATOM      3  H   UNL     8       3.051  -2.864  24.489  0.00  0.00    +0.000 HD
ATOM      4  H   UNL     8       3.051  -3.402  22.913  0.00  0.00    +0.000 HD
ATOM      5  H   UNL     8       3.051  -1.768  23.234  0.00  0.00    +0.000 HD
TER 
REMARK  Name = 3B2H_protA.pdb
REMARK                            x       y       z     vdW  Elec       q    Type
REMARK                         _______ _______ _______ _____ _____    ______ ____
ATOM      1  C   UNL     9       3.553  -9.879  12.324  0.00  0.00    +0.000 C 
ATOM      2  C   UNL     9       2.834 -11.091  11.751  0.00  0.00    +0.000 C 
ATOM      3  O   UNL     9       3.191 -12.240  12.029  0.00  0.00    +0.000 OA
ATOM      4  N   UNL     9       1.805 -10.822  10.955  0.00  0.00    +0.000 N 
ATOM      5  C   UNL     9       1.040 -11.874  10.303  0.00  0.00    +0.000 C 
ATOM      6  C   UNL     9       0.708 -11.528   8.863  0.00  0.00    +0.000 C 
ATOM      7  O   UNL     9       0.743 -10.361   8.460  0.00  0.00    +0.000 OA
ATOM      8  C   UNL     9      -0.244 -12.175  11.075  0.00  0.00    +0.000 C 
ATOM      9  C   UNL     9      -0.006 -13.042  12.295  0.00  0.00    +0.000 C 
ATOM     10  O   UNL     9       0.536 -14.141  12.192  0.00  0.00    +0.000 OA
ATOM     11  N   UNL     9      -0.418 -12.554  13.456  0.00  0.00    +0.000 N 
ATOM     12  N   UNL     9       0.403 -12.564   8.090  0.00  0.00    +0.000 N 
ATOM     13  C   UNL     9      -0.014 -12.386   6.706  0.00  0.00    +0.000 C 
ATOM     14  C   UNL     9      -1.002 -13.470   6.302  0.00  0.00    +0.000 C 
ATOM     15  O   UNL     9      -1.012 -14.559   6.871  0.00  0.00    +0.000 OA
ATOM     16  N   UNL     9      -1.847 -13.151   5.332  0.00  0.00    +0.000 N 
ATOM     17  C   UNL     9      -2.783 -14.128   4.789  0.00  0.00    +0.000 C 
ATOM     18  C   UNL     9      -3.297 -13.675   3.438  0.00  0.00    +0.000 C 
ATOM     19  O   UNL     9      -3.272 -12.485   3.125  0.00  0.00    +0.000 OA
ATOM     20  C   UNL     9      -3.952 -14.396   5.746  0.00  0.00    +0.000 C 
ATOM     21  C   UNL     9      -4.799 -13.186   6.045  0.00  0.00    +0.000 A 
ATOM     22  C   UNL     9      -5.842 -12.814   5.193  0.00  0.00    +0.000 A 
ATOM     23  C   UNL     9      -4.580 -12.440   7.197  0.00  0.00    +0.000 A 
ATOM     24  C   UNL     9      -6.631 -11.700   5.474  0.00  0.00    +0.000 A 
ATOM     25  C   UNL     9      -5.365 -11.329   7.489  0.00  0.00    +0.000 A 
ATOM     26  C   UNL     9      -6.394 -10.960   6.626  0.00  0.00    +0.000 A 
ATOM     27  N   UNL     9      -3.740 -14.645   2.646  0.00  0.00    +0.000 N 
ATOM     28  C   UNL     9      -4.448 -14.386   1.408  0.00  0.00    +0.000 C 
ATOM     29  C   UNL     9      -5.891 -14.812   1.636  0.00  0.00    +0.000 C 
ATOM     30  O   UNL     9      -6.154 -15.942   2.044  0.00  0.00    +0.000 OA
ATOM     31  C   UNL     9      -3.850 -15.210   0.248  0.00  0.00    +0.000 C 
ATOM     32  O   UNL     9      -2.445 -14.943   0.145  0.00  0.00    +0.000 OA
ATOM     33  C   UNL     9      -4.536 -14.877  -1.067  0.00  0.00    +0.000 C 
ATOM     34  N   UNL     9      -6.819 -13.889   1.399  0.00  0.00    +0.000 N 
ATOM     35  C   UNL     9      -8.240 -14.148   1.585  0.00  0.00    +0.000 C 
ATOM     36  C   UNL     9      -8.664 -15.427   0.855  0.00  0.00    +0.000 C 
ATOM     37  O   UNL     9      -8.340 -15.617  -0.319  0.00  0.00    +0.000 OA
ATOM     38  C   UNL     9      -9.083 -12.947   1.089  0.00  0.00    +0.000 C 
ATOM     39  C   UNL     9     -10.559 -13.287   1.084  0.00  0.00    +0.000 C 
ATOM     40  C   UNL     9      -8.824 -11.718   1.949  0.00  0.00    +0.000 C 
ATOM     41  N   UNL     9      -9.374 -16.298   1.571  0.00  0.00    +0.000 N 
ATOM     42  C   UNL     9      -9.891 -17.544   0.999  0.00  0.00    +0.000 C 
ATOM     43  C   UNL     9      -8.917 -18.704   0.901  0.00  0.00    +0.000 C 
ATOM     44  O   UNL     9      -9.280 -19.783   0.424  0.00  0.00    +0.000 OA
ATOM     45  N   UNL     9      -7.685 -18.494   1.362  0.00  0.00    +0.000 N 
ATOM     46  C   UNL     9      -6.659 -19.533   1.326  0.00  0.00    +0.000 C 
ATOM     47  C   UNL     9      -6.246 -19.922   2.735  0.00  0.00    +0.000 C 
ATOM     48  O   UNL     9      -6.442 -19.148   3.672  0.00  0.00    +0.000 OA
ATOM     49  C   UNL     9      -5.425 -19.039   0.564  0.00  0.00    +0.000 C 
ATOM     50  C   UNL     9      -5.701 -18.520  -0.841  0.00  0.00    +0.000 C 
ATOM     51  C   UNL     9      -6.093 -19.612  -1.833  0.00  0.00    +0.000 C 
ATOM     52  O   UNL     9      -5.907 -20.810  -1.531  0.00  0.00    +0.000 OA
ATOM     53  O   UNL     9      -6.578 -19.255  -2.929  0.00  0.00    +0.000 OA
ATOM     54  N   UNL     9      -5.662 -21.107   2.893  0.00  0.00    +0.000 N 
ATOM     55  C   UNL     9      -5.068 -21.462   4.181  0.00  0.00    +0.000 C 
ATOM     56  C   UNL     9      -3.949 -20.480   4.513  0.00  0.00    +0.000 C 
ATOM     57  O   UNL     9      -3.177 -20.080   3.644  0.00  0.00    +0.000 OA
ATOM     58  C   UNL     9      -4.529 -22.894   4.198  0.00  0.00    +0.000 C 
ATOM     59  C   UNL     9      -4.036 -23.330   5.575  0.00  0.00    +0.000 C 
ATOM     60  C   UNL     9      -3.580 -24.773   5.618  0.00  0.00    +0.000 C 
ATOM     61  O   UNL     9      -2.574 -25.103   4.954  0.00  0.00    +0.000 OA
ATOM     62  O   UNL     9      -4.224 -25.576   6.331  0.00  0.00    +0.000 OA
ATOM     63  N   UNL     9      -3.886 -20.085   5.776  0.00  0.00    +0.000 N 
ATOM     64  C   UNL     9      -2.820 -19.228   6.267  0.00  0.00    +0.000 C 
ATOM     65  C   UNL     9      -2.377 -19.752   7.619  0.00  0.00    +0.000 C 
ATOM     66  O   UNL     9      -3.007 -20.654   8.174  0.00  0.00    +0.000 OA
ATOM     67  C   UNL     9      -3.301 -17.784   6.390  0.00  0.00    +0.000 C 
ATOM     68  S   UNL     9      -4.579 -17.528   7.655  0.00  0.00    +0.000 S 
ATOM     69  N   UNL     9      -1.296 -19.184   8.140  0.00  0.00    +0.000 N 
ATOM     70  C   UNL     9      -0.809 -19.534   9.464  0.00  0.00    +0.000 C 
ATOM     71  C   UNL     9      -0.696 -18.269  10.299  0.00  0.00    +0.000 C 
ATOM     72  O   UNL     9       0.163 -17.429  10.043  0.00  0.00    +0.000 OA
ATOM     73  C   UNL     9       0.547 -20.234   9.369  0.00  0.00    +0.000 C 
ATOM     74  C   UNL     9       1.071 -20.701  10.716  0.00  0.00    +0.000 C 
ATOM     75  C   UNL     9       2.368 -21.469  10.604  0.00  0.00    +0.000 C 
ATOM     76  O   UNL     9       2.447 -22.566  11.190  0.00  0.00    +0.000 OA
ATOM     77  O   UNL     9       3.295 -20.979   9.922  0.00  0.00    +0.000 OA
ATOM     78  N   UNL     9      -1.568 -18.144  11.296  0.00  0.00    +0.000 N 
ATOM     79  C   UNL     9      -1.628 -16.938  12.113  0.00  0.00    +0.000 C 
ATOM     80  C   UNL     9      -0.994 -17.160  13.475  0.00  0.00    +0.000 C 
ATOM     81  O   UNL     9      -1.300 -18.135  14.150  0.00  0.00    +0.000 OA
ATOM     82  C   UNL     9      -3.078 -16.474  12.293  0.00  0.00    +0.000 C 
ATOM     83  C   UNL     9      -3.908 -16.142  11.048  0.00  0.00    +0.000 C 
ATOM     84  C   UNL     9      -5.307 -15.747  11.474  0.00  0.00    +0.000 C 
ATOM     85  C   UNL     9      -3.265 -15.037  10.210  0.00  0.00    +0.000 C 
ATOM     86  N   UNL     9      -0.112 -16.247  13.869  0.00  0.00    +0.000 N 
ATOM     87  C   UNL     9       0.461 -16.281  15.204  0.00  0.00    +0.000 C 
ATOM     88  C   UNL     9      -0.470 -15.529  16.147  0.00  0.00    +0.000 C 
ATOM     89  O   UNL     9      -0.735 -14.343  15.953  0.00  0.00    +0.000 OA
ATOM     90  C   UNL     9       1.862 -15.667  15.215  0.00  0.00    +0.000 C 
ATOM     91  C   UNL     9       2.570 -15.811  16.553  0.00  0.00    +0.000 C 
ATOM     92  C   UNL     9       3.912 -15.104  16.595  0.00  0.00    +0.000 C 
ATOM     93  O   UNL     9       4.496 -14.839  15.519  0.00  0.00    +0.000 OA
ATOM     94  O   UNL     9       4.386 -14.820  17.717  0.00  0.00    +0.000 OA
ATOM     95  N   UNL     9      -0.973 -16.236  17.154  0.00  0.00    +0.000 N 
ATOM     96  C   UNL     9      -1.908 -15.659  18.119  0.00  0.00    +0.000 C 
ATOM     97  C   UNL     9      -1.135 -15.017  19.269  0.00  0.00    +0.000 C 
ATOM     98  O   UNL     9       0.099 -15.060  19.285  0.00  0.00    +0.000 OA
ATOM     99  C   UNL     9      -2.885 -16.718  18.656  0.00  0.00    +0.000 C 
ATOM    100  O   UNL     9      -2.163 -17.695  19.414  0.00  0.00    +0.000 OA
ATOM    101  C   UNL     9      -3.624 -17.401  17.510  0.00  0.00    +0.000 C 
ATOM    102  N   UNL     9      -1.852 -14.429  20.226  0.00  0.00    +0.000 N 
ATOM    103  C   UNL     9      -1.207 -13.685  21.311  0.00  0.00    +0.000 C 
ATOM    104  C   UNL     9      -0.318 -14.541  22.213  0.00  0.00    +0.000 C 
ATOM    105  O   UNL     9       0.671 -14.047  22.750  0.00  0.00    +0.000 OA
ATOM    106  C   UNL     9      -2.225 -12.899  22.146  0.00  0.00    +0.000 C 
ATOM    107  C   UNL     9      -2.752 -11.612  21.499  0.00  0.00    +0.000 C 
ATOM    108  S   UNL     9      -1.554 -10.668  20.533  0.00  0.00    +0.000 S 
ATOM    109  C   UNL     9      -2.120 -11.017  18.868  0.00  0.00    +0.000 C 
ATOM    110  N   UNL     9      -0.664 -15.821  22.360  0.00  0.00    +0.000 N 
ATOM    111  C   UNL     9       0.116 -16.761  23.178  0.00  0.00    +0.000 C 
ATOM    112  C   UNL     9       1.417 -17.173  22.500  0.00  0.00    +0.000 C 
ATOM    113  O   UNL     9       2.322 -17.707  23.144  0.00  0.00    +0.000 OA
ATOM    114  C   UNL     9      -0.665 -18.060  23.465  0.00  0.00    +0.000 C 
ATOM    115  O   UNL     9      -0.978 -18.717  22.230  0.00  0.00    +0.000 OA
ATOM    116  C   UNL     9      -1.942 -17.778  24.239  0.00  0.00    +0.000 C 
ATOM    117  N   UNL     9       1.499 -16.933  21.197  0.00  0.00    +0.000 N 
ATOM    118  C   UNL     9       2.617 -17.413  20.401  0.00  0.00    +0.000 C 
ATOM    119  C   UNL     9       2.222 -18.604  19.551  0.00  0.00    +0.000 C 
ATOM    120  O   UNL     9       2.935 -18.952  18.610  0.00  0.00    +0.000 OA
ATOM    121  N   UNL     9       1.086 -19.227  19.874  0.00  0.00    +0.000 N 
ATOM    122  C   UNL     9       0.602 -20.369  19.099  0.00  0.00    +0.000 C 
ATOM    123  C   UNL     9       0.248 -19.954  17.683  0.00  0.00    +0.000 C 
ATOM    124  O   UNL     9      -0.505 -18.999  17.472  0.00  0.00    +0.000 OA
ATOM    125  C   UNL     9      -0.605 -21.058  19.749  0.00  0.00    +0.000 C 
ATOM    126  C   UNL     9      -1.070 -22.288  18.954  0.00  0.00    +0.000 C 
ATOM    127  C   UNL     9      -2.148 -23.113  19.626  0.00  0.00    +0.000 C 
ATOM    128  O   UNL     9      -2.438 -22.887  20.818  0.00  0.00    +0.000 OA
ATOM    129  O   UNL     9      -2.699 -24.009  18.950  0.00  0.00    +0.000 OA
ATOM    130  N   UNL     9       0.805 -20.684  16.725  0.00  0.00    +0.000 N 
ATOM    131  C   UNL     9       0.501 -20.481  15.318  0.00  0.00    +0.000 C 
ATOM    132  C   UNL     9      -0.596 -21.451  14.904  0.00  0.00    +0.000 C 
ATOM    133  O   UNL     9      -0.481 -22.672  15.106  0.00  0.00    +0.000 OA
ATOM    134  C   UNL     9       1.754 -20.667  14.465  0.00  0.00    +0.000 C 
ATOM    135  C   UNL     9       2.822 -19.616  14.716  0.00  0.00    +0.000 C 
ATOM    136  C   UNL     9       4.048 -19.870  13.862  0.00  0.00    +0.000 C 
ATOM    137  C   UNL     9       5.065 -18.754  14.025  0.00  0.00    +0.000 C 
ATOM    138  N   UNL     9       6.171 -18.879  13.047  0.00  0.00    +0.000 N 
ATOM    139  N   UNL     9      -1.669 -20.893  14.343  0.00  0.00    +0.000 N 
ATOM    140  C   UNL     9      -2.837 -21.677  13.951  0.00  0.00    +0.000 C 
ATOM    141  C   UNL     9      -3.048 -21.647  12.444  0.00  0.00    +0.000 C 
ATOM    142  O   UNL     9      -2.820 -20.615  11.797  0.00  0.00    +0.000 OA
ATOM    143  N   UNL     9      -3.472 -22.783  11.890  0.00  0.00    +0.000 N 
ATOM    144  C   UNL     9      -3.808 -22.884  10.474  0.00  0.00    +0.000 C 
ATOM    145  C   UNL     9      -5.302 -22.627  10.316  0.00  0.00    +0.000 C 
ATOM    146  O   UNL     9      -6.123 -23.288  10.954  0.00  0.00    +0.000 OA
ATOM    147  C   UNL     9      -3.465 -24.272   9.922  0.00  0.00    +0.000 C 
ATOM    148  C   UNL     9      -1.981 -24.631   9.960  0.00  0.00    +0.000 C 
ATOM    149  C   UNL     9      -1.203 -23.982   8.828  0.00  0.00    +0.000 C 
ATOM    150  C   UNL     9       0.307 -24.136   9.010  0.00  0.00    +0.000 C 
ATOM    151  N   UNL     9       0.780 -25.557   9.018  0.00  0.00    +0.000 N 
ATOM    152  N   UNL     9      -5.645 -21.652   9.483  0.00  0.00    +0.000 N 
ATOM    153  C   UNL     9      -7.046 -21.307   9.263  0.00  0.00    +0.000 C 
ATOM    154  C   UNL     9      -7.236 -20.603   7.920  0.00  0.00    +0.000 C 
ATOM    155  O   UNL     9      -6.298 -20.490   7.125  0.00  0.00    +0.000 OA
ATOM    156  C   UNL     9      -7.608 -20.466  10.448  0.00  0.00    +0.000 C 
ATOM    157  O   UNL     9      -9.032 -20.346  10.336  0.00  0.00    +0.000 OA
ATOM    158  C   UNL     9      -6.964 -19.084  10.517  0.00  0.00    +0.000 C 
ATOM    159  N   UNL     9      -8.455 -20.143   7.672  0.00  0.00    +0.000 N 
ATOM    160  C   UNL     9      -8.765 -19.379   6.474  0.00  0.00    +0.000 C 
ATOM    161  C   UNL     9      -9.460 -18.093   6.903  0.00  0.00    +0.000 C 
ATOM    162  O   UNL     9     -10.357 -18.121   7.751  0.00  0.00    +0.000 OA
ATOM    163  C   UNL     9      -9.674 -20.174   5.498  0.00  0.00    +0.000 C 
ATOM    164  C   UNL     9      -9.996 -19.348   4.267  0.00  0.00    +0.000 C 
ATOM    165  C   UNL     9      -9.014 -21.486   5.089  0.00  0.00    +0.000 C 
ATOM    166  N   UNL     9      -9.024 -16.972   6.333  0.00  0.00    +0.000 N 
ATOM    167  C   UNL     9      -9.670 -15.683   6.573  0.00  0.00    +0.000 C 
ATOM    168  C   UNL     9     -10.479 -15.325   5.336  0.00  0.00    +0.000 C 
ATOM    169  O   UNL     9      -9.978 -15.426   4.212  0.00  0.00    +0.000 OA
ATOM    170  C   UNL     9      -8.648 -14.554   6.890  0.00  0.00    +0.000 C 
ATOM    171  C   UNL     9      -9.378 -13.274   7.279  0.00  0.00    +0.000 C 
ATOM    172  C   UNL     9      -7.689 -14.978   8.002  0.00  0.00    +0.000 C 
ATOM    173  N   UNL     9     -11.731 -14.925   5.557  0.00  0.00    +0.000 N 
ATOM    174  C   UNL     9     -12.640 -14.553   4.473  0.00  0.00    +0.000 C 
ATOM    175  C   UNL     9     -13.028 -13.086   4.540  0.00  0.00    +0.000 C 
ATOM    176  O   UNL     9     -13.088 -12.503   5.625  0.00  0.00    +0.000 OA
ATOM    177  C   UNL     9     -13.929 -15.377   4.538  0.00  0.00    +0.000 C 
ATOM    178  C   UNL     9     -13.745 -16.892   4.465  0.00  0.00    +0.000 C 
ATOM    179  C   UNL     9     -13.442 -17.440   3.072  0.00  0.00    +0.000 C 
ATOM    180  O   UNL     9     -13.202 -18.639   2.929  0.00  0.00    +0.000 OA
ATOM    181  N   UNL     9     -13.446 -16.582   2.051  0.00  0.00    +0.000 N 
ATOM    182  N   UNL     9     -13.295 -12.496   3.376  0.00  0.00    +0.000 N 
ATOM    183  C   UNL     9     -13.935 -11.183   3.315  0.00  0.00    +0.000 C 
ATOM    184  C   UNL     9     -15.440 -11.367   3.196  0.00  0.00    +0.000 C 
ATOM    185  O   UNL     9     -15.903 -12.240   2.457  0.00  0.00    +0.000 OA
ATOM    186  C   UNL     9     -13.419 -10.371   2.120  0.00  0.00    +0.000 C 
ATOM    187  C   UNL     9     -12.102  -9.604   2.279  0.00  0.00    +0.000 C 
ATOM    188  C   UNL     9     -11.570  -9.143   0.925  0.00  0.00    +0.000 C 
ATOM    189  C   UNL     9     -12.287  -8.415   3.216  0.00  0.00    +0.000 C 
ATOM    190  N   UNL     9     -16.194 -10.552   3.933  0.00  0.00    +0.000 N 
ATOM    191  C   UNL     9     -17.644 -10.464   3.759  0.00  0.00    +0.000 C 
ATOM    192  C   UNL     9     -17.940  -9.016   3.394  0.00  0.00    +0.000 C 
ATOM    193  O   UNL     9     -18.235  -8.186   4.255  0.00  0.00    +0.000 OA
ATOM    194  C   UNL     9     -18.391 -10.912   5.017  0.00  0.00    +0.000 C 
ATOM    195  C   UNL     9     -18.282 -12.409   5.287  0.00  0.00    +0.000 C 
ATOM    196  C   UNL     9     -19.158 -12.873   6.438  0.00  0.00    +0.000 C 
ATOM    197  O   UNL     9     -18.837 -13.912   7.052  0.00  0.00    +0.000 OA
ATOM    198  O   UNL     9     -20.168 -12.201   6.735  0.00  0.00    +0.000 OA
ATOM    199  N   UNL     9     -17.825  -8.719   2.103  0.00  0.00    +0.000 N 
ATOM    200  C   UNL     9     -17.782  -7.343   1.626  0.00  0.00    +0.000 C 
ATOM    201  C   UNL     9     -16.393  -6.749   1.799  0.00  0.00    +0.000 C 
ATOM    202  O   UNL     9     -15.509  -7.388   2.374  0.00  0.00    +0.000 OA
ATOM    203  N   UNL     9     -16.211  -5.521   1.312  0.00  0.00    +0.000 N 
ATOM    204  C   UNL     9     -14.893  -4.871   1.272  0.00  0.00    +0.000 C 
ATOM    205  C   UNL     9     -14.286  -4.592   2.641  0.00  0.00    +0.000 C 
ATOM    206  O   UNL     9     -13.068  -4.429   2.757  0.00  0.00    +0.000 OA
ATOM    207  C   UNL     9     -14.976  -3.536   0.531  0.00  0.00    +0.000 C 
ATOM    208  C   UNL     9     -15.171  -3.693  -0.964  0.00  0.00    +0.000 C 
ATOM    209  O   UNL     9     -15.123  -4.832  -1.485  0.00  0.00    +0.000 OA
ATOM    210  O   UNL     9     -15.368  -2.648  -1.622  0.00  0.00    +0.000 OA
ATOM    211  N   UNL     9     -15.138  -4.531   3.662  0.00  0.00    +0.000 N 
ATOM    212  C   UNL     9     -14.771  -3.934   4.943  0.00  0.00    +0.000 C 
ATOM    213  C   UNL     9     -14.913  -4.864   6.147  0.00  0.00    +0.000 C 
ATOM    214  O   UNL     9     -14.942  -4.395   7.281  0.00  0.00    +0.000 OA
ATOM    215  C   UNL     9     -15.620  -2.678   5.177  0.00  0.00    +0.000 C 
ATOM    216  C   UNL     9     -15.325  -1.580   4.177  0.00  0.00    +0.000 C 
ATOM    217  O   UNL     9     -14.181  -1.153   4.029  0.00  0.00    +0.000 OA
ATOM    218  N   UNL     9     -16.362  -1.110   3.489  0.00  0.00    +0.000 N 
ATOM    219  N   UNL     9     -14.987  -6.172   5.904  0.00  0.00    +0.000 N 
ATOM    220  C   UNL     9     -15.209  -7.137   6.976  0.00  0.00    +0.000 C 
ATOM    221  C   UNL     9     -16.681  -7.450   7.174  0.00  0.00    +0.000 C 
ATOM    222  C   UNL     9     -17.129  -8.180   8.348  0.00  0.00    +0.000 C 
ATOM    223  C   UNL     9     -18.416  -8.905   8.320  0.00  0.00    +0.000 C 
ATOM    224  C   UNL     9     -18.646  -8.316   8.401  0.00  0.00    +0.000 C 
ATOM    225  C   UNL     9     -19.277  -7.988   9.163  0.00  0.00    +0.000 C 
ATOM    226  C   UNL     9     -19.081  -9.304   9.471  0.00  0.00    +0.000 C 
ATOM    227  N   UNL     9     -20.661  -8.516   9.327  0.00  0.00    +0.000 NA
ATOM    228  N   UNL     9     -20.564  -9.330   9.660  0.00  0.00    +0.000 NA
ATOM    229  H   UNL     9       1.553  -9.883  10.802  0.00  0.00    +0.000 HD
ATOM    230  H   UNL     9      -0.847 -11.669  13.493  0.00  0.00    +0.000 HD
ATOM    231  H   UNL     9      -0.295 -13.077  14.281  0.00  0.00    +0.000 HD
ATOM    232  H   UNL     9       0.460 -13.474   8.461  0.00  0.00    +0.000 HD
ATOM    233  H   UNL     9      -1.842 -12.235   4.971  0.00  0.00    +0.000 HD
ATOM    234  H   UNL     9      -3.581 -15.580   2.911  0.00  0.00    +0.000 HD
ATOM    235  H   UNL     9      -2.308 -14.001  -0.041  0.00  0.00    +0.000 HD
ATOM    236  H   UNL     9      -6.535 -12.999   1.087  0.00  0.00    +0.000 HD
ATOM    237  H   UNL     9      -9.558 -16.097   2.517  0.00  0.00    +0.000 HD
ATOM    238  H   UNL     9      -7.459 -17.613   1.738  0.00  0.00    +0.000 HD
ATOM    239  H   UNL     9      -5.630 -21.744   2.143  0.00  0.00    +0.000 HD
ATOM    240  H   UNL     9      -4.585 -20.382   6.403  0.00  0.00    +0.000 HD
ATOM    241  H   UNL     9      -5.688 -18.245   7.331  0.00  0.00    +0.000 HD
ATOM    242  H   UNL     9      -0.811 -18.507   7.615  0.00  0.00    +0.000 HD
ATOM    243  H   UNL     9      -2.188 -18.884  11.487  0.00  0.00    +0.000 HD
ATOM    244  H   UNL     9       0.158 -15.535  13.245  0.00  0.00    +0.000 HD
ATOM    245  H   UNL     9      -0.707 -17.179  17.253  0.00  0.00    +0.000 HD
ATOM    246  H   UNL     9      -1.512 -18.132  18.842  0.00  0.00    +0.000 HD
ATOM    247  H   UNL     9      -2.834 -14.496  20.204  0.00  0.00    +0.000 HD
ATOM    248  H   UNL     9      -1.472 -16.149  21.903  0.00  0.00    +0.000 HD
ATOM    249  H   UNL     9      -1.537 -18.138  21.688  0.00  0.00    +0.000 HD
ATOM    250  H   UNL     9       0.785 -16.417  20.758  0.00  0.00    +0.000 HD
ATOM    251  H   UNL     9       0.565 -18.912  20.648  0.00  0.00    +0.000 HD
ATOM    252  H   UNL     9       1.446 -21.388  16.976  0.00  0.00    +0.000 HD
ATOM    253  H   UNL     9       5.796 -18.820  12.100  0.00  0.00    +0.000 HD
ATOM    254  H   UNL     9       6.636 -19.778  13.173  0.00  0.00    +0.000 HD
ATOM    255  H   UNL     9       6.842 -18.125  13.195  0.00  0.00    +0.000 HD
ATOM    256  H   UNL     9      -1.674 -19.921  14.188  0.00  0.00    +0.000 HD
ATOM    257  H   UNL     9      -3.562 -23.583  12.457  0.00  0.00    +0.000 HD
ATOM    258  H   UNL     9       0.362 -26.050   9.807  0.00  0.00    +0.000 HD
ATOM    259  H   UNL     9       1.796 -25.577   9.104  0.00  0.00    +0.000 HD
ATOM    260  H   UNL     9       0.504 -26.012   8.148  0.00  0.00    +0.000 HD
ATOM    261  H   UNL     9      -4.943 -21.153   9.006  0.00  0.00    +0.000 HD
ATOM    262  H   UNL     9      -9.254 -19.881   9.514  0.00  0.00    +0.000 HD
ATOM    263  H   UNL     9      -9.173 -20.325   8.320  0.00  0.00    +0.000 HD
ATOM    264  H   UNL     9      -8.245 -17.012   5.733  0.00  0.00    +0.000 HD
ATOM    265  H   UNL     9     -12.056 -14.878   6.485  0.00  0.00    +0.000 HD
ATOM    266  H   UNL     9     -13.255 -16.901   1.139  0.00  0.00    +0.000 HD
ATOM    267  H   UNL     9     -13.640 -15.630   2.209  0.00  0.00    +0.000 HD
ATOM    268  H   UNL     9     -13.056 -12.954   2.538  0.00  0.00    +0.000 HD
ATOM    269  H   UNL     9     -15.761  -9.991   4.617  0.00  0.00    +0.000 HD
ATOM    270  H   UNL     9     -17.767  -9.452   1.449  0.00  0.00    +0.000 HD
ATOM    271  H   UNL     9     -16.991  -5.030   0.965  0.00  0.00    +0.000 HD
ATOM    272  H   UNL     9     -16.044  -4.900   3.550  0.00  0.00    +0.000 HD
ATOM    273  H   UNL     9     -16.229  -0.395   2.825  0.00  0.00    +0.000 HD
ATOM    274  H   UNL     9     -17.262  -1.477   3.644  0.00  0.00    +0.000 HD
ATOM    275  H   UNL     9     -14.890  -6.495   4.979  0.00  0.00    +0.000 HD
ATOM    276  H   UNL     9     -21.138  -8.553   8.426  0.00  0.00    +0.000 HD
ATOM    277  H   UNL     9     -21.031 -10.052   9.112  0.00  0.00    +0.000 HD
TER 
REMARK  Name = 3B2H_protA.pdb
REMARK                            x       y       z     vdW  Elec       q    Type
REMARK                         _______ _______ _______ _____ _____    ______ ____
ATOM      1  C   UNL    10       4.913  -9.693  11.601  0.00  0.00    +0.000 C 
TER 
REMARK  Name = 3B2H_protA.pdb
REMARK                            x       y       z     vdW  Elec       q    Type
REMARK                         _______ _______ _______ _____ _____    ______ ____
ATOM      1  C   UNL    11       4.598  -9.246  10.063  0.00  0.00    +0.000 C 
TER 
REMARK  Name = 3B2H_protA.pdb
REMARK                            x       y       z     vdW  Elec       q    Type
REMARK                         _______ _______ _______ _____ _____    ______ ____
ATOM      1  C   UNL    12       6.158  -8.556   9.725  0.00  0.00    +0.000 C 
ATOM      2  C   UNL    12       5.821  -8.679   9.356  0.00  0.00    +0.000 C 
ATOM      3  O   UNL    12       6.849  -7.809  10.419  0.00  0.00    +0.000 OA
ATOM      4  O   UNL    12       6.927  -9.208   9.470  0.00  0.00    +0.000 OA
ATOM      5  N   UNL    12       6.531  -8.956   8.516  0.00  0.00    +0.000 NA
ATOM      6  N   UNL    12       5.617  -7.601   8.606  0.00  0.00    +0.000 N 
ATOM      7  H   UNL    12       6.975  -8.207   7.986  0.00  0.00    +0.000 HD
ATOM      8  H   UNL    12       6.515  -7.214   8.316  0.00  0.00    +0.000 HD
ATOM      9  H   UNL    12       5.104  -6.904   9.145  0.00  0.00    +0.000 HD
ATOM     10  H   UNL    12       5.075  -7.858   7.781  0.00  0.00    +0.000 HD
TER 
REMARK  Name = 3B2H_protA.pdb
REMARK                            x       y       z     vdW  Elec       q    Type
REMARK                         _______ _______ _______ _____ _____    ______ ____
ATOM      1  C   UNL     7       0.009 -12.400   6.696  0.00  0.00    +0.000 C 
ATOM      2  C   UNL     7       1.195 -12.368   5.762  0.00  0.00    +0.000 C 
TER 
REMARK  Name = 3B2H_protA.pdb
REMARK                            x       y       z     vdW  Elec       q    Type
REMARK                         _______ _______ _______ _____ _____    ______ ____
ATOM      1  C   UNL     8       1.237 -12.447   5.776  0.00  0.00    +0.000 C 
ATOM      2  C   UNL     8       1.924 -13.696   5.625  0.00  0.00    +0.000 C 
TER 
REMARK  Name = 3B2H_protA.pdb
REMARK                            x       y       z     vdW  Elec       q    Type
REMARK                         _______ _______ _______ _____ _____    ______ ____
ATOM      1  C   UNL    13       2.028 -13.752   5.829  0.00  0.00    +0.000 C 
TER 
REMARK  Name = 3B2H_protA.pdb
REMARK                            x       y       z     vdW  Elec       q    Type
REMARK                         _______ _______ _______ _____ _____    ______ ____
ATOM      1  C   UNL    14       3.459 -13.606   5.329  0.00  0.00    +0.000 C 
ATOM      2  C   UNL    14       3.191 -13.587   4.799  0.00  0.00    +0.000 C 
ATOM      3  O   UNL    14       3.687 -12.881   4.336  0.00  0.00    +0.000 OA
ATOM      4  O   UNL    14       4.041 -12.727   5.113  0.00  0.00    +0.000 OA
ATOM      5  O   UNL    14       4.359 -14.224   5.938  0.00  0.00    +0.000 OA
ATOM      6  O   UNL    14       3.340 -14.368   3.838  0.00  0.00    +0.000 OA
ATOM      7  H   UNL    14       5.217 -14.032   5.529  0.00  0.00    +0.000 HD
ATOM      8  H   UNL    14       4.257 -14.325   3.526  0.00  0.00    +0.000 HD
TER 
REMARK  Name = 3B2H_protA.pdb
REMARK                            x       y       z     vdW  Elec       q    Type
REMARK                         _______ _______ _______ _____ _____    ______ ____
ATOM      1  C   UNL    15      -2.836 -21.683  13.958  0.00  0.00    +0.000 C 
ATOM      2  C   UNL    15      -4.131 -21.194  14.661  0.00  0.00    +0.000 C 
ATOM      3  C   UNL    15      -5.266 -22.183  14.482  0.00  0.00    +0.000 C 
ATOM      4  C   UNL    15      -4.407 -19.710  14.370  0.00  0.00    +0.000 C 
TER 
REMARK  Name = 3B2H_protA.pdb
REMARK                            x       y       z     vdW  Elec       q    Type
REMARK                         _______ _______ _______ _____ _____    ______ ____
ATOM      1  C   UNL    10      -4.122 -21.202  14.689  0.00  0.00    +0.000 C 
ATOM      2  C   UNL    10      -4.054 -21.456  16.162  0.00  0.00    +0.000 C 
ATOM      3  C   UNL    10      -3.867 -21.016  16.184  0.00  0.00    +0.000 C 
TER 
REMARK  Name = 3B2H_protA.pdb
REMARK                            x       y       z     vdW  Elec       q    Type
REMARK                         _______ _______ _______ _____ _____    ______ ____
ATOM      1  C   UNL    16     -15.190  -7.134   6.985  0.00  0.00    +0.000 C 
ATOM      2  C   UNL    16     -14.392  -8.414   6.764  0.00  0.00    +0.000 C 
ATOM      3  O   UNL    16     -14.542  -9.089   5.744  0.00  0.00    +0.000 OA
ATOM      4  N   UNL    16     -13.536  -8.728   7.734  0.00  0.00    +0.000 N 
ATOM      5  C   UNL    16     -12.726  -9.942   7.725  0.00  0.00    +0.000 C 
ATOM      6  C   UNL    16     -13.223 -10.884   8.808  0.00  0.00    +0.000 C 
ATOM      7  O   UNL    16     -13.427 -10.464   9.952  0.00  0.00    +0.000 OA
ATOM      8  C   UNL    16     -11.254  -9.605   7.981  0.00  0.00    +0.000 C 
ATOM      9  C   UNL    16     -10.485  -8.873   6.880  0.00  0.00    +0.000 C 
ATOM     10  C   UNL    16      -9.242  -8.233   7.472  0.00  0.00    +0.000 C 
ATOM     11  C   UNL    16     -10.114  -9.794   5.730  0.00  0.00    +0.000 C 
ATOM     12  N   UNL    16     -13.422 -12.148   8.438  0.00  0.00    +0.000 N 
ATOM     13  C   UNL    16     -13.966 -13.153   9.350  0.00  0.00    +0.000 C 
ATOM     14  C   UNL    16     -13.119 -14.422   9.325  0.00  0.00    +0.000 C 
ATOM     15  O   UNL    16     -12.773 -14.928   8.258  0.00  0.00    +0.000 OA
ATOM     16  C   UNL    16     -15.440 -13.521   9.002  0.00  0.00    +0.000 C 
ATOM     17  C   UNL    16     -16.012 -14.486  10.028  0.00  0.00    +0.000 C 
ATOM     18  C   UNL    16     -16.314 -12.280   8.909  0.00  0.00    +0.000 C 
ATOM     19  N   UNL    16     -12.795 -14.927  10.511  0.00  0.00    +0.000 N 
ATOM     20  C   UNL    16     -12.078 -16.189  10.636  0.00  0.00    +0.000 C 
ATOM     21  C   UNL    16     -12.422 -16.887  11.952  0.00  0.00    +0.000 C 
ATOM     22  O   UNL    16     -12.998 -16.278  12.856  0.00  0.00    +0.000 OA
ATOM     23  C   UNL    16     -10.537 -16.008  10.483  0.00  0.00    +0.000 C 
ATOM     24  O   UNL    16      -9.922 -17.292  10.344  0.00  0.00    +0.000 OA
ATOM     25  C   UNL    16      -9.923 -15.273  11.678  0.00  0.00    +0.000 C 
ATOM     26  N   UNL    16     -12.076 -18.165  12.045  0.00  0.00    +0.000 N 
ATOM     27  C   UNL    16     -12.274 -18.931  13.274  0.00  0.00    +0.000 C 
ATOM     28  C   UNL    16     -11.050 -19.805  13.504  0.00  0.00    +0.000 C 
ATOM     29  O   UNL    16     -10.559 -20.458  12.579  0.00  0.00    +0.000 OA
ATOM     30  C   UNL    16     -13.556 -19.804  13.231  0.00  0.00    +0.000 C 
ATOM     31  O   UNL    16     -14.708 -18.977  13.019  0.00  0.00    +0.000 OA
ATOM     32  C   UNL    16     -13.741 -20.571  14.541  0.00  0.00    +0.000 C 
ATOM     33  N   UNL    16     -10.554 -19.794  14.737  0.00  0.00    +0.000 N 
ATOM     34  C   UNL    16      -9.453 -20.659  15.147  0.00  0.00    +0.000 C 
ATOM     35  C   UNL    16      -9.570 -20.940  16.637  0.00  0.00    +0.000 C 
ATOM     36  O   UNL    16     -10.001 -20.071  17.394  0.00  0.00    +0.000 OA
ATOM     37  C   UNL    16      -8.095 -20.019  14.816  0.00  0.00    +0.000 C 
ATOM     38  C   UNL    16      -7.909 -18.640  15.389  0.00  0.00    +0.000 A 
ATOM     39  C   UNL    16      -7.403 -18.464  16.676  0.00  0.00    +0.000 A 
ATOM     40  C   UNL    16      -8.235 -17.513  14.639  0.00  0.00    +0.000 A 
ATOM     41  C   UNL    16      -7.237 -17.191  17.212  0.00  0.00    +0.000 A 
ATOM     42  C   UNL    16      -8.069 -16.235  15.164  0.00  0.00    +0.000 A 
ATOM     43  C   UNL    16      -7.566 -16.075  16.457  0.00  0.00    +0.000 A 
ATOM     44  N   UNL    16      -9.184 -22.151  17.049  0.00  0.00    +0.000 N 
ATOM     45  C   UNL    16      -9.250 -22.565  18.454  0.00  0.00    +0.000 C 
ATOM     46  H   UNL    16     -13.445  -8.111   8.495  0.00  0.00    +0.000 HD
ATOM     47  H   UNL    16     -13.195 -12.415   7.518  0.00  0.00    +0.000 HD
ATOM     48  H   UNL    16     -13.046 -14.435  11.326  0.00  0.00    +0.000 HD
ATOM     49  H   UNL    16     -10.090 -17.819  11.141  0.00  0.00    +0.000 HD
ATOM     50  H   UNL    16     -11.674 -18.610  11.264  0.00  0.00    +0.000 HD
ATOM     51  H   UNL    16     -14.795 -18.350  13.754  0.00  0.00    +0.000 HD
ATOM     52  H   UNL    16     -10.944 -19.179  15.399  0.00  0.00    +0.000 HD
ATOM     53  H   UNL    16      -8.842 -22.790  16.383  0.00  0.00    +0.000 HD
TER 
REMARK  Name = 3B2H_protA.pdb
REMARK                            x       y       z     vdW  Elec       q    Type
REMARK                         _______ _______ _______ _____ _____    ______ ____
ATOM      1  C   UNL    17     -16.707  -7.452   7.086  0.00  0.00    +0.000 C 
TER 
REMARK  Name = 3B2H_protA.pdb
REMARK                            x       y       z     vdW  Elec       q    Type
REMARK                         _______ _______ _______ _____ _____    ______ ____
ATOM      1  C   UNL    18     -16.963  -8.447   8.295  0.00  0.00    +0.000 C 
TER 
REMARK  Name = 3B2H_protA.pdb
REMARK                            x       y       z     vdW  Elec       q    Type
REMARK                         _______ _______ _______ _____ _____    ______ ____
ATOM      1  C   UNK M   0      -9.247 -22.555  18.458  0.00  0.00    +0.000 C 
ATOM      2  C   UNK M   0     -10.624 -22.267  19.065  0.00  0.00    +0.000 C 
ATOM      3  O   UNK M   0     -10.729 -21.872  20.229  0.00  0.00    +0.000 OA
ATOM      4  C   UNK M   0      -8.136 -21.896  19.278  0.00  0.00    +0.000 C 
ATOM      5  C   UNK M   0      -6.710 -22.128  18.763  0.00  0.00    +0.000 C 
ATOM      6  C   UNK M   0      -6.732 -22.321  19.004  0.00  0.00    +0.000 C 
ATOM      7  C   UNK M   0      -6.239 -23.575  18.936  0.00  0.00    +0.000 C 
ATOM      8  C   UNK M   0      -5.692 -21.317  19.514  0.00  0.00    +0.000 C 
ATOM      9  C   UNK M   0      -6.164 -24.001  20.404  0.00  0.00    +0.000 C 
ATOM     10  C   UNK M   0      -5.496 -21.374  21.035  0.00  0.00    +0.000 C 
ATOM     11  N   UNK M   0      -5.175 -23.209  21.192  0.00  0.00    +0.000 N 
ATOM     12  N   UNK M   0      -6.488 -20.550  21.787  0.00  0.00    +0.000 N 
ATOM     13  N   ASN M   1     -11.673 -22.461  18.265  0.00  0.00    +0.000 N 
ATOM     14  CA  ASN M   1     -13.063 -22.198  18.679  0.00  0.00    +0.000 C 
ATOM     15  C   ASN M   1     -13.382 -20.719  18.937  0.00  0.00    +0.000 C 
ATOM     16  O   ASN M   1     -14.448 -20.384  19.465  0.00  0.00    +0.000 OA
ATOM     17  CB  ASN M   1     -13.455 -23.072  19.883  0.00  0.00    +0.000 C 
ATOM     18  CG  ASN M   1     -13.260 -24.560  19.619  0.00  0.00    +0.000 C 
ATOM     19  OD1 ASN M   1     -12.846 -25.310  20.506  0.00  0.00    +0.000 OA
ATOM     20  ND2 ASN M   1     -13.553 -24.990  18.398  0.00  0.00    +0.000 N 
ATOM     21  N   ILE M   2     -12.459 -19.841  18.550  0.00  0.00    +0.000 N 
ATOM     22  CA  ILE M   2     -12.657 -18.396  18.638  0.00  0.00    +0.000 C 
ATOM     23  C   ILE M   2     -13.129 -17.897  17.278  0.00  0.00    +0.000 C 
ATOM     24  O   ILE M   2     -12.525 -18.225  16.256  0.00  0.00    +0.000 OA
ATOM     25  CB  ILE M   2     -11.344 -17.647  19.016  0.00  0.00    +0.000 C 
ATOM     26  CG1 ILE M   2     -10.732 -18.215  20.302  0.00  0.00    +0.000 C 
ATOM     27  CG2 ILE M   2     -11.601 -16.146  19.162  0.00  0.00    +0.000 C 
ATOM     28  CD1 ILE M   2      -9.249 -17.864  20.508  0.00  0.00    +0.000 C 
ATOM     29  N   LYS M   3     -14.210 -17.122  17.263  0.00  0.00    +0.000 N 
ATOM     30  CA  LYS M   3     -14.628 -16.452  16.039  0.00  0.00    +0.000 C 
ATOM     31  C   LYS M   3     -14.147 -15.016  16.097  0.00  0.00    +0.000 C 
ATOM     32  O   LYS M   3     -14.441 -14.293  17.054  0.00  0.00    +0.000 OA
ATOM     33  CB  LYS M   3     -16.147 -16.499  15.855  0.00  0.00    +0.000 C 
ATOM     34  CG  LYS M   3     -16.619 -15.765  14.613  0.00  0.00    +0.000 C 
ATOM     35  CD  LYS M   3     -18.112 -15.897  14.407  0.00  0.00    +0.000 C 
ATOM     36  CE  LYS M   3     -18.511 -15.404  13.024  0.00  0.00    +0.000 C 
ATOM     37  NZ  LYS M   3     -19.961 -15.635  12.756  0.00  0.00    +0.000 N 
ATOM     38  N   UNK M   4     -13.397 -14.613  15.076  0.00  0.00    +0.000 N 
ATOM     39  C   UNK M   4     -12.867 -13.264  15.004  0.00  0.00    +0.000 C 
ATOM     40  C   UNK M   4     -13.513 -12.517  13.851  0.00  0.00    +0.000 C 
ATOM     41  O   UNK M   4     -13.555 -13.020  12.725  0.00  0.00    +0.000 OA
ATOM     42  C   UNK M   4     -11.348 -13.290  14.828  0.00  0.00    +0.000 C 
ATOM     43  O   UNK M   4     -10.835 -11.976  14.675  0.00  0.00    +0.000 OA
ATOM     44  N   UNK M   4     -14.026 -11.325  14.144  0.00  0.00    +0.000 N 
ATOM     45  C   UNK M   4     -14.612 -10.450  13.129  0.00  0.00    +0.000 C 
ATOM     46  C   UNK M   4     -13.950  -9.078  13.220  0.00  0.00    +0.000 C 
ATOM     47  O   UNK M   4     -13.994  -8.431  14.264  0.00  0.00    +0.000 OA
ATOM     48  C   UNK M   4     -16.142 -10.301  13.302  0.00  0.00    +0.000 C 
ATOM     49  C   UNK M   4     -16.704  -9.294  12.302  0.00  0.00    +0.000 C 
ATOM     50  C   UNK M   4     -16.837 -11.648  13.150  0.00  0.00    +0.000 C 
ATOM     51  N   UNK M   4     -13.341  -8.649  12.118  0.00  0.00    +0.000 N 
ATOM     52  C   UNK M   4     -12.669  -7.356  12.043  0.00  0.00    +0.000 C 
ATOM     53  C   UNK M   4     -13.403  -6.509  11.017  0.00  0.00    +0.000 C 
ATOM     54  O   UNK M   4     -13.474  -6.873   9.841  0.00  0.00    +0.000 OA
ATOM     55  C   UNK M   4     -11.193  -7.511  11.606  0.00  0.00    +0.000 C 
ATOM     56  O   UNK M   4     -10.538  -8.468  12.445  0.00  0.00    +0.000 OA
ATOM     57  C   UNK M   4     -10.459  -6.187  11.687  0.00  0.00    +0.000 C 
ATOM     58  N   UNK M   4     -13.941  -5.378  11.455  0.00  0.00    +0.000 N 
ATOM     59  C   UNK M   4     -14.784  -4.575  10.582  0.00  0.00    +0.000 C 
ATOM     60  C   UNK M   4     -14.359  -3.118  10.588  0.00  0.00    +0.000 C 
ATOM     61  O   UNK M   4     -14.214  -2.507  11.651  0.00  0.00    +0.000 OA
ATOM     62  C   UNK M   4     -16.248  -4.725  10.994  0.00  0.00    +0.000 C 
ATOM     63  C   UNK M   4     -17.253  -4.140  10.015  0.00  0.00    +0.000 C 
ATOM     64  C   UNK M   4     -18.655  -4.679  10.253  0.00  0.00    +0.000 C 
ATOM     65  O   UNK M   4     -18.947  -5.109  11.392  0.00  0.00    +0.000 OA
ATOM     66  O   UNK M   4     -19.464  -4.680   9.302  0.00  0.00    +0.000 OA
ATOM     67  N   UNK M   4     -14.161  -2.576   9.388  0.00  0.00    +0.000 N 
ATOM     68  C   UNK M   4     -13.743  -1.192   9.208  0.00  0.00    +0.000 C 
ATOM     69  C   UNK M   4     -14.914  -0.311   8.793  0.00  0.00    +0.000 C 
ATOM     70  O   UNK M   4     -15.628  -0.617   7.836  0.00  0.00    +0.000 OA
ATOM     71  C   UNK M   4     -12.618  -1.092   8.170  0.00  0.00    +0.000 C 
ATOM     72  C   UNK M   4     -12.159   0.323   7.798  0.00  0.00    +0.000 C 
ATOM     73  C   UNK M   4     -11.491   1.025   8.969  0.00  0.00    +0.000 C 
ATOM     74  C   UNK M   4     -11.230   0.286   6.595  0.00  0.00    +0.000 C 
ATOM     75  N   UNK M   4     -15.112   0.766   9.544  0.00  0.00    +0.000 N 
ATOM     76  C   UNK M   4     -16.128   1.758   9.232  0.00  0.00    +0.000 C 
ATOM     77  C   UNK M   4     -17.273   1.722  10.223  0.00  0.00    +0.000 C 
ATOM     78  C   UNK M   4     -18.403   2.657   9.956  0.00  0.00    +0.000 C 
ATOM     79  O   UNK M   4     -18.473   3.238   8.871  0.00  0.00    +0.000 OA
ATOM     80  N   UNK M   4     -19.314   2.813  10.910  0.00  0.00    +0.000 N 
ATOM     81  H   UNK M   0      -4.237 -23.413  20.848  0.00  0.00    +0.000 HD
ATOM     82  H   UNK M   0      -5.264 -23.469  22.174  0.00  0.00    +0.000 HD
ATOM     83  H   UNK M   0      -7.432 -20.808  21.500  0.00  0.00    +0.000 HD
ATOM     84  H   UNK M   0      -6.330 -19.562  21.588  0.00  0.00    +0.000 HD
ATOM     85  H   UNK M   0      -6.380 -20.717  22.787  0.00  0.00    +0.000 HD
ATOM     86  H   ASN M   1     -11.511 -22.796  17.354  0.00  0.00    +0.000 HD
ATOM     87  H   ASN M   1     -13.881 -24.357  17.719  0.00  0.00    +0.000 HD
ATOM     88  H   ASN M   1     -13.442 -25.942  18.171  0.00  0.00    +0.000 HD
ATOM     89  H   ILE M   2     -11.608 -20.179  18.190  0.00  0.00    +0.000 HD
ATOM     90  H   LYS M   3     -14.733 -17.000  18.088  0.00  0.00    +0.000 HD
ATOM     91  H   LYS M   3     -20.519 -15.122  13.439  0.00  0.00    +0.000 HD
ATOM     92  H   LYS M   3     -20.166 -16.632  12.829  0.00  0.00    +0.000 HD
ATOM     93  H   LYS M   3     -20.189 -15.309  11.817  0.00  0.00    +0.000 HD
ATOM     94  H   UNK M   4     -13.196 -15.246  14.350  0.00  0.00    +0.000 HD
ATOM     95  H   UNK M   4     -11.040 -11.455  15.467  0.00  0.00    +0.000 HD
ATOM     96  H   UNK M   4     -14.011 -11.020  15.080  0.00  0.00    +0.000 HD
ATOM     97  H   UNK M   4     -13.344  -9.227  11.321  0.00  0.00    +0.000 HD
ATOM     98  H   UNK M   4     -10.554  -8.157  13.364  0.00  0.00    +0.000 HD
ATOM     99  H   UNK M   4     -13.769  -5.080  12.377  0.00  0.00    +0.000 HD
ATOM    100  H   UNK M   4     -14.303  -3.134   8.589  0.00  0.00    +0.000 HD
ATOM    101  H   UNK M   4     -14.550   0.898  10.342  0.00  0.00    +0.000 HD
ATOM    102  H   UNK M   4     -20.075   3.422  10.770  0.00  0.00    +0.000 HD
ATOM    103  H   UNK M   4     -19.229   2.319  11.758  0.00  0.00    +0.000 HD
TER 
REMARK  Name = 3B2H_protA.pdb
REMARK                            x       y       z     vdW  Elec       q    Type
REMARK                         _______ _______ _______ _____ _____    ______ ____
ATOM      1  C   UNL    19      -8.155 -21.850  19.277  0.00  0.00    +0.000 C 
TER 
REMARK  Name = 3B2H_protA.pdb
REMARK                            x       y       z     vdW  Elec       q    Type
REMARK                         _______ _______ _______ _____ _____    ______ ____
ATOM      1  C   UNL    20     -16.119   1.764   9.220  0.00  0.00    +0.000 C 
ATOM      2  C   UNL    20     -15.469   3.137   9.196  0.00  0.00    +0.000 C 
ATOM      3  O   UNL    20     -15.320   3.788  10.231  0.00  0.00    +0.000 OA
ATOM      4  N   UNL    20     -15.058   3.559   8.003  0.00  0.00    +0.000 N 
ATOM      5  C   UNL    20     -14.354   4.824   7.826  0.00  0.00    +0.000 C 
ATOM      6  C   UNL    20     -12.954   4.739   8.401  0.00  0.00    +0.000 C 
ATOM      7  O   UNL    20     -12.056   4.141   7.801  0.00  0.00    +0.000 OA
ATOM      8  N   UNL    20     -12.780   5.336   9.573  0.00  0.00    +0.000 N 
ATOM      9  C   UNL    20     -11.489   5.341  10.255  0.00  0.00    +0.000 C 
ATOM     10  C   UNL    20     -11.492   4.496  11.519  0.00  0.00    +0.000 C 
ATOM     11  O   UNL    20     -10.488   4.447  12.240  0.00  0.00    +0.000 OA
ATOM     12  C   UNL    20     -11.102   6.775  10.604  0.00  0.00    +0.000 C 
ATOM     13  C   UNL    20     -10.991   7.658   9.379  0.00  0.00    +0.000 C 
ATOM     14  O   UNL    20     -10.493   7.176   8.337  0.00  0.00    +0.000 OA
ATOM     15  O   UNL    20     -11.406   8.832   9.461  0.00  0.00    +0.000 OA
ATOM     16  N   UNL    20     -12.612   3.825  11.777  0.00  0.00    +0.000 N 
ATOM     17  C   UNL    20     -12.755   3.036  12.993  0.00  0.00    +0.000 C 
ATOM     18  C   UNL    20     -12.841   1.550  12.676  0.00  0.00    +0.000 C 
ATOM     19  O   UNL    20     -13.676   1.111  11.875  0.00  0.00    +0.000 OA
ATOM     20  N   UNL    20     -11.949   0.785  13.303  0.00  0.00    +0.000 N 
ATOM     21  C   UNL    20     -11.943  -0.674  13.187  0.00  0.00    +0.000 C 
ATOM     22  C   UNL    20     -11.967  -0.655  13.163  0.00  0.00    +0.000 C 
ATOM     23  C   UNL    20     -12.479  -1.285  14.469  0.00  0.00    +0.000 C 
ATOM     24  O   UNL    20     -11.996  -0.970  15.562  0.00  0.00    +0.000 OA
ATOM     25  C   UNL    20     -10.528  -1.247  12.941  0.00  0.00    +0.000 C 
ATOM     26  C   UNL    20     -10.580  -1.191  12.670  0.00  0.00    +0.000 C 
ATOM     27  C   UNL    20     -10.059  -0.933  11.522  0.00  0.00    +0.000 C 
ATOM     28  C   UNL    20     -10.738  -2.472  11.845  0.00  0.00    +0.000 C 
ATOM     29  C   UNL    20     -10.505  -2.765  13.192  0.00  0.00    +0.000 C 
ATOM     30  C   UNL    20      -9.575  -1.342  13.810  0.00  0.00    +0.000 C 
ATOM     31  C   UNL    20      -8.728  -1.557  11.170  0.00  0.00    +0.000 C 
ATOM     32  C   UNL    20      -9.571  -2.735  10.897  0.00  0.00    +0.000 C 
ATOM     33  N   UNL    20     -13.485  -2.145  14.338  0.00  0.00    +0.000 N 
ATOM     34  C   UNL    20     -14.032  -2.864  15.473  0.00  0.00    +0.000 C 
ATOM     35  C   UNL    20     -13.644  -4.323  15.310  0.00  0.00    +0.000 C 
ATOM     36  O   UNL    20     -13.903  -4.934  14.270  0.00  0.00    +0.000 OA
ATOM     37  C   UNL    20     -15.567  -2.703  15.565  0.00  0.00    +0.000 C 
ATOM     38  O   UNL    20     -15.884  -1.310  15.672  0.00  0.00    +0.000 OA
ATOM     39  C   UNL    20     -16.134  -3.436  16.787  0.00  0.00    +0.000 C 
ATOM     40  N   UNL    20     -13.006  -4.869  16.336  0.00  0.00    +0.000 N 
ATOM     41  C   UNL    20     -12.595  -6.257  16.316  0.00  0.00    +0.000 C 
ATOM     42  C   UNL    20     -13.298  -7.004  17.432  0.00  0.00    +0.000 C 
ATOM     43  O   UNL    20     -13.158  -6.655  18.601  0.00  0.00    +0.000 OA
ATOM     44  C   UNL    20     -11.079  -6.365  16.454  0.00  0.00    +0.000 C 
ATOM     45  C   UNL    20     -10.577  -7.760  16.198  0.00  0.00    +0.000 C 
ATOM     46  O   UNL    20     -10.555  -8.598  17.094  0.00  0.00    +0.000 OA
ATOM     47  N   UNL    20     -10.164  -8.018  14.966  0.00  0.00    +0.000 N 
ATOM     48  N   UNL    20     -14.076  -8.012  17.057  0.00  0.00    +0.000 N 
ATOM     49  C   UNL    20     -14.843  -8.786  18.016  0.00  0.00    +0.000 C 
ATOM     50  C   UNL    20     -14.373 -10.231  17.964  0.00  0.00    +0.000 C 
ATOM     51  O   UNL    20     -14.424 -10.869  16.910  0.00  0.00    +0.000 OA
ATOM     52  C   UNL    20     -16.358  -8.705  17.714  0.00  0.00    +0.000 C 
ATOM     53  O   UNL    20     -16.753  -7.331  17.583  0.00  0.00    +0.000 OA
ATOM     54  C   UNL    20     -17.170  -9.368  18.821  0.00  0.00    +0.000 C 
ATOM     55  N   UNL    20     -13.896 -10.722  19.106  0.00  0.00    +0.000 N 
ATOM     56  C   UNL    20     -13.458 -12.102  19.218  0.00  0.00    +0.000 C 
ATOM     57  H   UNL    20     -15.235   2.999   7.213  0.00  0.00    +0.000 HD
ATOM     58  H   UNL    20     -13.545   5.789   9.996  0.00  0.00    +0.000 HD
ATOM     59  H   UNL    20     -13.357   3.863  11.135  0.00  0.00    +0.000 HD
ATOM     60  H   UNL    20     -11.265   1.207  13.872  0.00  0.00    +0.000 HD
ATOM     61  H   UNL    20     -13.870  -2.298  13.445  0.00  0.00    +0.000 HD
ATOM     62  H   UNL    20     -15.480  -0.947  16.476  0.00  0.00    +0.000 HD
ATOM     63  H   UNL    20     -12.808  -4.319  17.128  0.00  0.00    +0.000 HD
ATOM     64  H   UNL    20     -10.199  -7.315  14.278  0.00  0.00    +0.000 HD
ATOM     65  H   UNL    20      -9.822  -8.913  14.739  0.00  0.00    +0.000 HD
ATOM     66  H   UNL    20     -14.134  -8.241  16.101  0.00  0.00    +0.000 HD
ATOM     67  H   UNL    20     -16.580  -6.864  18.415  0.00  0.00    +0.000 HD
ATOM     68  H   UNL    20     -13.839 -10.135  19.894  0.00  0.00    +0.000 HD
TER 
REMARK  Name = 3B2H_protA.pdb
REMARK                            x       y       z     vdW  Elec       q    Type
REMARK                         _______ _______ _______ _____ _____    ______ ____
ATOM      1  C   UNL    21     -17.258   1.704  10.270  0.00  0.00    +0.000 C 
ATOM      2  C   UNL    21     -18.082   0.448  10.123  0.00  0.00    +0.000 C 
ATOM      3  O   UNL    21     -18.804   0.228   9.150  0.00  0.00    +0.000 OA
ATOM      4  N   UNL    21     -17.974  -0.396  11.139  0.00  0.00    +0.000 N 
ATOM      5  H   UNL    21     -18.476  -1.243  11.131  0.00  0.00    +0.000 HD
ATOM      6  H   UNL    21     -17.392  -0.176  11.902  0.00  0.00    +0.000 HD
TER 
REMARK  Name = 3B2H_protA.pdb
REMARK                            x       y       z     vdW  Elec       q    Type
REMARK                         _______ _______ _______ _____ _____    ______ ____
ATOM      1  C   UNL    22     -12.792   3.042  12.995  0.00  0.00    +0.000 C 
ATOM      2  C   UNL    22     -13.950   3.522  13.853  0.00  0.00    +0.000 C 
ATOM      3  C   UNL    22     -14.180   4.981  13.914  0.00  0.00    +0.000 C 
ATOM      4  C   UNL    22     -13.643   4.911  14.421  0.00  0.00    +0.000 C 
ATOM      5  C   UNL    22     -14.209   2.719  15.092  0.00  0.00    +0.000 C 
ATOM      6  C   UNL    22     -13.107   5.596  14.818  0.00  0.00    +0.000 C 
ATOM      7  C   UNL    22     -14.850   5.797  14.567  0.00  0.00    +0.000 C 
TER 
REMARK  Name = 3B2H_protA.pdb
REMARK                            x       y       z     vdW  Elec       q    Type
REMARK                         _______ _______ _______ _____ _____    ______ ____
ATOM      1  C   UNL    23     -14.090   3.454  13.749  0.00  0.00    +0.000 C 
TER 
REMARK  Name = 3B2H_protA.pdb
REMARK                            x       y       z     vdW  Elec       q    Type
REMARK                         _______ _______ _______ _____ _____    ______ ____
ATOM      1  C   UNL    24     -14.244   2.550  14.994  0.00  0.00    +0.000 C 
TER 
REMARK  Name = 3B2H_protA.pdb
REMARK                            x       y       z     vdW  Elec       q    Type
REMARK                         _______ _______ _______ _____ _____    ______ ____
ATOM      1  C   UNL    25     -13.436 -12.102  19.242  0.00  0.00    +0.000 C 
ATOM      2  C   UNL    25     -14.308 -12.817  20.260  0.00  0.00    +0.000 C 
ATOM      3  O   UNL    25     -14.357 -12.412  21.416  0.00  0.00    +0.000 OA
ATOM      4  C   UNL    25     -11.964 -12.163  19.543  0.00  0.00    +0.000 C 
ATOM      5  C   UNL    25     -10.953 -12.093  18.567  0.00  0.00    +0.000 C 
ATOM      6  C   UNL    25     -11.109 -11.475  18.478  0.00  0.00    +0.000 C 
ATOM      7  N   UNL    25     -14.995 -13.868  19.818  0.00  0.00    +0.000 N 
ATOM      8  C   UNL    25     -15.948 -14.600  20.650  0.00  0.00    +0.000 C 
ATOM      9  H   UNL    25     -14.855 -14.165  18.890  0.00  0.00    +0.000 HD
TER 
REMARK  Name = 3B2H_protA.pdb
REMARK                            x       y       z     vdW  Elec       q    Type
REMARK                         _______ _______ _______ _____ _____    ______ ____
ATOM      1  C   UNL    26     -11.972 -12.150  19.692  0.00  0.00    +0.000 C 
TER 
REMARK  Name = 3B2H_protA.pdb
REMARK                            x       y       z     vdW  Elec       q    Type
REMARK                         _______ _______ _______ _____ _____    ______ ____
ATOM      1  S   UNL    27      -9.266 -11.989  19.200  0.00  0.00    +0.000 S 
ATOM      2  S   UNL    27      -9.374 -11.249  18.902  0.00  0.00    +0.000 S 
ATOM      3  C   UNL    27      -8.322 -12.301  17.712  0.00  0.00    +0.000 C 
ATOM      4  C   UNL    27      -8.786 -12.940  18.805  0.00  0.00    +0.000 C 
ATOM      5  H   UNL    27      -8.582 -11.757  20.352  0.00  0.00    +0.000 HD
TER 
REMARK  Name = 3B2H_protA.pdb
REMARK                            x       y       z     vdW  Elec       q    Type
REMARK                         _______ _______ _______ _____ _____    ______ ____
ATOM      1  C   UNL    28     -15.918 -14.591  20.691  0.00  0.00    +0.000 C 
ATOM      2  C   UNL    28     -15.434 -16.005  20.981  0.00  0.00    +0.000 C 
ATOM      3  O   UNL    28     -15.174 -16.798  20.075  0.00  0.00    +0.000 OA
ATOM      4  N   UNL    28     -15.290 -16.292  22.272  0.00  0.00    +0.000 N 
ATOM      5  C   UNL    28     -14.911 -17.613  22.744  0.00  0.00    +0.000 C 
ATOM      6  C   UNL    28     -15.943 -18.016  23.780  0.00  0.00    +0.000 C 
ATOM      7  O   UNL    28     -15.944 -17.506  24.902  0.00  0.00    +0.000 OA
ATOM      8  C   UNL    28     -13.501 -17.613  23.341  0.00  0.00    +0.000 C 
ATOM      9  C   UNL    28     -13.013 -18.915  23.990  0.00  0.00    +0.000 C 
ATOM     10  C   UNL    28     -13.055 -20.112  23.037  0.00  0.00    +0.000 C 
ATOM     11  C   UNL    28     -11.609 -18.710  24.533  0.00  0.00    +0.000 C 
ATOM     12  N   UNL    28     -16.850 -18.900  23.383  0.00  0.00    +0.000 N 
ATOM     13  C   UNL    28     -17.982 -19.231  24.237  0.00  0.00    +0.000 C 
ATOM     14  C   UNL    28     -18.750 -17.960  24.563  0.00  0.00    +0.000 C 
ATOM     15  O   UNL    28     -19.034 -17.152  23.670  0.00  0.00    +0.000 OA
ATOM     16  N   UNL    28     -19.071 -17.767  25.842  0.00  0.00    +0.000 N 
ATOM     17  C   UNL    28     -19.812 -16.583  26.285  0.00  0.00    +0.000 C 
ATOM     18  C   UNL    28     -18.973 -15.302  26.330  0.00  0.00    +0.000 C 
ATOM     19  O   UNL    28     -19.530 -14.211  26.498  0.00  0.00    +0.000 OA
ATOM     20  C   UNL    28     -20.445 -16.815  27.668  0.00  0.00    +0.000 C 
ATOM     21  C   UNL    28     -21.680 -17.704  27.620  0.00  0.00    +0.000 C 
ATOM     22  O   UNL    28     -22.111 -18.106  26.519  0.00  0.00    +0.000 OA
ATOM     23  O   UNL    28     -22.223 -17.996  28.708  0.00  0.00    +0.000 OA
ATOM     24  N   UNL    28     -17.650 -15.432  26.194  0.00  0.00    +0.000 N 
ATOM     25  C   UNL    28     -16.746 -14.280  26.283  0.00  0.00    +0.000 C 
ATOM     26  C   UNL    28     -16.671 -13.559  24.940  0.00  0.00    +0.000 C 
ATOM     27  O   UNL    28     -16.274 -14.150  23.935  0.00  0.00    +0.000 OA
ATOM     28  C   UNL    28     -15.310 -14.681  26.732  0.00  0.00    +0.000 C 
ATOM     29  C   UNL    28     -15.333 -15.369  28.104  0.00  0.00    +0.000 C 
ATOM     30  C   UNL    28     -14.398 -13.449  26.766  0.00  0.00    +0.000 C 
ATOM     31  C   UNL    28     -14.014 -16.040  28.497  0.00  0.00    +0.000 C 
ATOM     32  N   UNL    28     -17.059 -12.285  24.940  0.00  0.00    +0.000 N 
ATOM     33  C   UNL    28     -17.013 -11.452  23.737  0.00  0.00    +0.000 C 
ATOM     34  C   UNL    28     -16.020 -10.312  23.965  0.00  0.00    +0.000 C 
ATOM     35  O   UNL    28     -16.323  -9.336  24.658  0.00  0.00    +0.000 OA
ATOM     36  C   UNL    28     -18.416 -10.912  23.350  0.00  0.00    +0.000 C 
ATOM     37  C   UNL    28     -18.340 -10.075  22.093  0.00  0.00    +0.000 C 
ATOM     38  C   UNL    28     -19.394 -12.065  23.149  0.00  0.00    +0.000 C 
ATOM     39  N   UNL    28     -14.828 -10.479  23.394  0.00  0.00    +0.000 N 
ATOM     40  C   UNL    28     -13.708  -9.556  23.546  0.00  0.00    +0.000 C 
ATOM     41  C   UNL    28     -13.769  -8.560  22.394  0.00  0.00    +0.000 C 
ATOM     42  O   UNL    28     -13.528  -8.922  21.243  0.00  0.00    +0.000 OA
ATOM     43  C   UNL    28     -12.402 -10.369  23.555  0.00  0.00    +0.000 C 
ATOM     44  C   UNL    28     -11.138  -9.544  23.517  0.00  0.00    +0.000 A 
ATOM     45  C   UNL    28     -10.053  -9.975  22.762  0.00  0.00    +0.000 A 
ATOM     46  C   UNL    28     -11.020  -8.363  24.246  0.00  0.00    +0.000 A 
ATOM     47  C   UNL    28      -8.872  -9.242  22.715  0.00  0.00    +0.000 A 
ATOM     48  C   UNL    28      -9.841  -7.614  24.197  0.00  0.00    +0.000 A 
ATOM     49  C   UNL    28      -8.766  -8.059  23.436  0.00  0.00    +0.000 A 
ATOM     50  N   UNL    28     -14.111  -7.313  22.713  0.00  0.00    +0.000 N 
ATOM     51  C   UNL    28     -14.322  -6.276  21.704  0.00  0.00    +0.000 C 
ATOM     52  C   UNL    28     -15.727  -5.709  21.763  0.00  0.00    +0.000 C 
ATOM     53  C   UNL    28     -15.996  -4.391  21.112  0.00  0.00    +0.000 C 
ATOM     54  C   UNL    28     -16.160  -4.945  20.508  0.00  0.00    +0.000 C 
ATOM     55  C   UNL    28     -17.487  -4.083  21.067  0.00  0.00    +0.000 C 
ATOM     56  C   UNL    28     -17.513  -4.255  20.691  0.00  0.00    +0.000 C 
ATOM     57  C   UNL    28     -17.752  -2.594  20.957  0.00  0.00    +0.000 C 
ATOM     58  C   UNL    28     -18.691  -5.178  20.386  0.00  0.00    +0.000 C 
ATOM     59  N   UNL    28     -17.515  -1.891  22.249  0.00  0.00    +0.000 N 
ATOM     60  N   UNL    28     -18.913  -6.254  21.391  0.00  0.00    +0.000 N 
ATOM     61  H   UNL    28     -15.447 -15.581  22.934  0.00  0.00    +0.000 HD
ATOM     62  H   UNL    28     -16.757 -19.335  22.505  0.00  0.00    +0.000 HD
ATOM     63  H   UNL    28     -18.802 -18.440  26.509  0.00  0.00    +0.000 HD
ATOM     64  H   UNL    28     -17.271 -16.326  26.029  0.00  0.00    +0.000 HD
ATOM     65  H   UNL    28     -17.389 -11.889  25.779  0.00  0.00    +0.000 HD
ATOM     66  H   UNL    28     -14.694 -11.277  22.833  0.00  0.00    +0.000 HD
ATOM     67  H   UNL    28     -14.226  -7.081  23.663  0.00  0.00    +0.000 HD
ATOM     68  H   UNL    28     -18.148  -2.261  22.958  0.00  0.00    +0.000 HD
ATOM     69  H   UNL    28     -17.685  -0.892  22.129  0.00  0.00    +0.000 HD
ATOM     70  H   UNL    28     -16.550  -2.039  22.544  0.00  0.00    +0.000 HD
ATOM     71  H   UNL    28     -18.100  -6.869  21.416  0.00  0.00    +0.000 HD
ATOM     72  H   UNL    28     -19.740  -6.793  21.135  0.00  0.00    +0.000 HD
ATOM     73  H   UNL    28     -19.051  -5.836  22.311  0.00  0.00    +0.000 HD
TER 
REMARK  Name = 3B2H_protA.pdb
REMARK                            x       y       z     vdW  Elec       q    Type
REMARK                         _______ _______ _______ _____ _____    ______ ____
ATOM      1  C   UNL    17     -17.388 -14.580  20.171  0.00  0.00    +0.000 C 
ATOM      2  O   UNL    17     -17.773 -13.368  19.607  0.00  0.00    +0.000 OA
ATOM      3  C   UNL    17     -18.364 -15.379  20.809  0.00  0.00    +0.000 C 
ATOM      4  H   UNL    17     -18.068 -12.765  20.307  0.00  0.00    +0.000 HD
TER 
REMARK  Name = 3B2H_protA.pdb
REMARK                            x       y       z     vdW  Elec       q    Type
REMARK                         _______ _______ _______ _____ _____    ______ ____
ATOM      1  C   UNL    18     -17.321 -14.688  19.936  0.00  0.00    +0.000 C 
ATOM      2  C   UNL    18     -17.485 -15.124  18.762  0.00  0.00    +0.000 C 
TER 
REMARK  Name = 3B2H_protA.pdb
REMARK                            x       y       z     vdW  Elec       q    Type
REMARK                         _______ _______ _______ _____ _____    ______ ____
ATOM      1  O   HOH    29     -18.214 -15.373  21.035  0.00  0.00    +0.000 OA
ATOM      2  H   HOH    29     -17.244 -15.373  21.035  0.00  0.00    +0.000 HD
ATOM      3  H   HOH    29     -18.537 -14.810  21.756  0.00  0.00    +0.000 HD
TER 
REMARK  Name = 3B2H_protA.pdb
REMARK                            x       y       z     vdW  Elec       q    Type
REMARK                         _______ _______ _______ _____ _____    ______ ____
ATOM      1  C   UNK T   0     -14.307  -6.284  21.692  0.00  0.00    +0.000 C 
ATOM      2  C   UNK T   0     -13.275  -5.164  21.807  0.00  0.00    +0.000 C 
ATOM      3  O   UNK T   0     -13.075  -4.601  22.880  0.00  0.00    +0.000 OA
ATOM      4  N   ARG T   1     -12.625  -4.858  20.682  0.00  0.00    +0.000 N 
ATOM      5  CA  ARG T   1     -11.607  -3.809  20.596  0.00  0.00    +0.000 C 
ATOM      6  C   ARG T   1     -12.027  -2.771  19.567  0.00  0.00    +0.000 C 
ATOM      7  O   ARG T   1     -12.395  -3.126  18.442  0.00  0.00    +0.000 OA
ATOM      8  CB  ARG T   1     -10.268  -4.396  20.149  0.00  0.00    +0.000 C 
ATOM      9  CG  ARG T   1      -9.547  -5.245  21.177  0.00  0.00    +0.000 C 
ATOM     10  CD  ARG T   1      -8.471  -6.111  20.515  0.00  0.00    +0.000 C 
ATOM     11  NE  ARG T   1      -7.487  -5.346  19.740  0.00  0.00    +0.000 N 
ATOM     12  CZ  ARG T   1      -6.393  -4.784  20.252  0.00  0.00    +0.000 C 
ATOM     13  NH1 ARG T   1      -5.550  -4.117  19.468  0.00  0.00    +0.000 N 
ATOM     14  NH2 ARG T   1      -6.143  -4.880  21.551  0.00  0.00    +0.000 N 
ATOM     15  N   ILE T   2     -11.953  -1.499  19.948  0.00  0.00    +0.000 N 
ATOM     16  CA  ILE T   2     -12.266  -0.400  19.046  0.00  0.00    +0.000 C 
ATOM     17  C   ILE T   2     -11.008   0.436  18.824  0.00  0.00    +0.000 C 
ATOM     18  O   ILE T   2     -10.434   0.957  19.782  0.00  0.00    +0.000 OA
ATOM     19  CB  ILE T   2     -13.393   0.505  19.602  0.00  0.00    +0.000 C 
ATOM     20  CG1 ILE T   2     -14.681  -0.302  19.825  0.00  0.00    +0.000 C 
ATOM     21  CG2 ILE T   2     -13.623   1.690  18.667  0.00  0.00    +0.000 C 
ATOM     22  CD1 ILE T   2     -15.847   0.510  20.395  0.00  0.00    +0.000 C 
ATOM     23  N   SER T   3     -10.587   0.546  17.565  0.00  0.00    +0.000 N 
ATOM     24  CA  SER T   3      -9.376   1.284  17.215  0.00  0.00    +0.000 C 
ATOM     25  C   SER T   3      -9.662   2.402  16.220  0.00  0.00    +0.000 C 
ATOM     26  O   SER T   3     -10.634   2.341  15.464  0.00  0.00    +0.000 OA
ATOM     27  CB  SER T   3      -8.319   0.336  16.643  0.00  0.00    +0.000 C 
ATOM     28  OG  SER T   3      -7.990  -0.686  17.564  0.00  0.00    +0.000 OA
ATOM     29  N   LYS T   4      -8.793   3.410  16.217  0.00  0.00    +0.000 N 
ATOM     30  CA  LYS T   4      -8.987   4.626  15.435  0.00  0.00    +0.000 C 
ATOM     31  C   LYS T   4      -7.748   4.897  14.591  0.00  0.00    +0.000 C 
ATOM     32  O   LYS T   4      -6.628   4.778  15.089  0.00  0.00    +0.000 OA
ATOM     33  CB  LYS T   4      -9.244   5.799  16.389  0.00  0.00    +0.000 C 
ATOM     34  CG  LYS T   4      -9.555   7.132  15.749  0.00  0.00    +0.000 C 
ATOM     35  CD  LYS T   4      -9.734   8.205  16.826  0.00  0.00    +0.000 C 
ATOM     36  CE  LYS T   4     -10.087   9.567  16.238  0.00  0.00    +0.000 C 
ATOM     37  NZ  LYS T   4      -8.946  10.197  15.512  0.00  0.00    +0.000 N 
ATOM     38  N   ARG T   5      -7.953   5.265  13.326  0.00  0.00    +0.000 N 
ATOM     39  CA  ARG T   5      -6.854   5.583  12.413  0.00  0.00    +0.000 C 
ATOM     40  C   ARG T   5      -5.947   6.681  12.981  0.00  0.00    +0.000 C 
ATOM     41  O   ARG T   5      -6.441   7.669  13.534  0.00  0.00    +0.000 OA
ATOM     42  CB  ARG T   5      -7.413   6.009  11.056  0.00  0.00    +0.000 C 
ATOM     43  CG  ARG T   5      -6.373   6.104   9.956  0.00  0.00    +0.000 C 
ATOM     44  CD  ARG T   5      -6.995   6.561   8.645  0.00  0.00    +0.000 C 
ATOM     45  NE  ARG T   5      -8.100   5.703   8.216  0.00  0.00    +0.000 N 
ATOM     46  CZ  ARG T   5      -7.960   4.533   7.594  0.00  0.00    +0.000 C 
ATOM     47  NH2 ARG T   5      -6.749   4.043   7.327  0.00  0.00    +0.000 N 
ATOM     48  NH1 ARG T   5      -9.035   3.839   7.254  0.00  0.00    +0.000 N 
ATOM     49  N   ILE T   6      -4.632   6.500  12.843  0.00  0.00    +0.000 N 
ATOM     50  CA  ILE T   6      -3.650   7.485  13.327  0.00  0.00    +0.000 C 
ATOM     51  C   ILE T   6      -2.631   7.931  12.254  0.00  0.00    +0.000 C 
ATOM     52  O   ILE T   6      -1.478   7.485  12.239  0.00  0.00    +0.000 OA
ATOM     53  CB  ILE T   6      -2.917   7.003  14.622  0.00  0.00    +0.000 C 
ATOM     54  CG1 ILE T   6      -2.390   5.572  14.454  0.00  0.00    +0.000 C 
ATOM     55  CG2 ILE T   6      -3.842   7.097  15.838  0.00  0.00    +0.000 C 
ATOM     56  CD1 ILE T   6      -1.331   5.161  15.480  0.00  0.00    +0.000 C 
ATOM     57  N   GLY T   7      -3.061   8.828  11.370  0.00  0.00    +0.000 N 
ATOM     58  CA  GLY T   7      -2.202   9.308  10.279  0.00  0.00    +0.000 C 
ATOM     59  C   GLY T   7      -1.942   8.231   9.241  0.00  0.00    +0.000 C 
ATOM     60  O   GLY T   7      -2.762   7.325   9.067  0.00  0.00    +0.000 OA
ATOM     61  N   THR T   8      -0.798   8.318   8.563  0.00  0.00    +0.000 N 
ATOM     62  CA  THR T   8      -0.457   7.368   7.498  0.00  0.00    +0.000 C 
ATOM     63  C   THR T   8       0.438   6.235   8.000  0.00  0.00    +0.000 C 
ATOM     64  OXT THR T   8       1.363   6.450   8.789  0.00  0.00    +0.000 OA
ATOM     65  CB  THR T   8       0.213   8.063   6.278  0.00  0.00    +0.000 C 
ATOM     66  OG1 THR T   8       1.558   8.437   6.601  0.00  0.00    +0.000 OA
ATOM     67  CG2 THR T   8      -0.572   9.299   5.851  0.00  0.00    +0.000 C 
ATOM     68  O   THR T   8       0.261   5.076   7.619  0.00  0.00    +0.000 OA
ATOM     69  H   ARG T   1     -12.842  -5.365  19.866  0.00  0.00    +0.000 HD
ATOM     70  H   ARG T   1      -7.647  -5.241  18.774  0.00  0.00    +0.000 HD
ATOM     71  H   ARG T   1      -5.730  -4.042  18.503  0.00  0.00    +0.000 HD
ATOM     72  H   ARG T   1      -4.746  -3.698  19.853  0.00  0.00    +0.000 HD
ATOM     73  H   ARG T   1      -5.334  -4.464  21.929  0.00  0.00    +0.000 HD
ATOM     74  H   ARG T   1      -6.766  -5.367  22.138  0.00  0.00    +0.000 HD
ATOM     75  H   ILE T   2     -11.677  -1.294  20.871  0.00  0.00    +0.000 HD
ATOM     76  H   SER T   3     -11.108   0.117  16.848  0.00  0.00    +0.000 HD
ATOM     77  H   SER T   3      -7.626  -0.289  18.371  0.00  0.00    +0.000 HD
ATOM     78  H   LYS T   4      -7.981   3.331  16.768  0.00  0.00    +0.000 HD
ATOM     79  H   LYS T   4      -8.674   9.605  14.727  0.00  0.00    +0.000 HD
ATOM     80  H   LYS T   4      -8.156  10.303  16.148  0.00  0.00    +0.000 HD
ATOM     81  H   LYS T   4      -9.229  11.113  15.164  0.00  0.00    +0.000 HD
ATOM     82  H   ARG T   5      -8.878   5.325  12.994  0.00  0.00    +0.000 HD
ATOM     83  H   ARG T   5      -9.016   6.014   8.401  0.00  0.00    +0.000 HD
ATOM     84  H   ARG T   5      -6.659   3.177   6.867  0.00  0.00    +0.000 HD
ATOM     85  H   ARG T   5      -5.945   4.547   7.590  0.00  0.00    +0.000 HD
ATOM     86  H   ARG T   5      -8.937   2.974   6.794  0.00  0.00    +0.000 HD
ATOM     87  H   ARG T   5      -9.932   4.188   7.461  0.00  0.00    +0.000 HD
ATOM     88  H   ILE T   6      -4.308   5.681  12.403  0.00  0.00    +0.000 HD
ATOM     89  H   GLY T   7      -3.978   9.179  11.449  0.00  0.00    +0.000 HD
ATOM     90  H   THR T   8      -0.165   9.039   8.783  0.00  0.00    +0.000 HD
ATOM     91  H   THR T   8       1.550   9.068   7.338  0.00  0.00    +0.000 HD
TER 
REMARK  Name = 3B2H_protA.pdb
REMARK                            x       y       z     vdW  Elec       q    Type
REMARK                         _______ _______ _______ _____ _____    ______ ____
ATOM      1  C   UNL    30     -15.743  -5.708  21.835  0.00  0.00    +0.000 C 
TER 
